%VERSION  VERSION_STAMP = V0001.000  DATE = 09/30/26  11:36:40                  
%FLAG TITLE                                                                     
%FORMAT(20a4)                                                                   
NALA                                                                            
%FLAG POINTERS                                                                  
%FORMAT(10I8)                                                                   
    4905      11    3671    1233      37      20      60      44       0       0
    8690    1221    1233      20      44      19      34      19      15       0
       0       0       0       0       0       0       0       1      12       0
    1218
%FLAG ATOM_NAME                                                                 
%FORMAT(20a4)                                                                   
N   H1  H2  H3  CA  HA  CB  HB1 HB2 HB3 C   O   N   H   CA  HA  CB  HB1 HB2 HB3 
C   O   N   H   CA  HA  CB  HB1 HB2 HB3 C   O   OXT O   H1  H2  EPW O   H1  H2  
EPW O   H1  H2  EPW O   H1  H2  EPW O   H1  H2  EPW O   H1  H2  EPW O   H1  H2  
EPW O   H1  H2  EPW O   H1  H2  EPW O   H1  H2  EPW O   H1  H2  EPW O   H1  H2  
EPW O   H1  H2  EPW O   H1  H2  EPW O   H1  H2  EPW O   H1  H2  EPW O   H1  H2  
EPW O   H1  H2  EPW O   H1  H2  EPW O   H1  H2  EPW O   H1  H2  EPW O   H1  H2  
EPW O   H1  H2  EPW O   H1  H2  EPW O   H1  H2  EPW O   H1  H2  EPW O   H1  H2  
EPW O   H1  H2  EPW O   H1  H2  EPW O   H1  H2  EPW O   H1  H2  EPW O   H1  H2  
EPW O   H1  H2  EPW O   H1  H2  EPW O   H1  H2  EPW O   H1  H2  EPW O   H1  H2  
EPW O   H1  H2  EPW O   H1  H2  EPW O   H1  H2  EPW O   H1  H2  EPW O   H1  H2  
EPW O   H1  H2  EPW O   H1  H2  EPW O   H1  H2  EPW O   H1  H2  EPW O   H1  H2  
EPW O   H1  H2  EPW O   H1  H2  EPW O   H1  H2  EPW O   H1  H2  EPW O   H1  H2  
EPW O   H1  H2  EPW O   H1  H2  EPW O   H1  H2  EPW O   H1  H2  EPW O   H1  H2  
EPW O   H1  H2  EPW O   H1  H2  EPW O   H1  H2  EPW O   H1  H2  EPW O   H1  H2  
EPW O   H1  H2  EPW O   H1  H2  EPW O   H1  H2  EPW O   H1  H2  EPW O   H1  H2  
EPW O   H1  H2  EPW O   H1  H2  EPW O   H1  H2  EPW O   H1  H2  EPW O   H1  H2  
EPW O   H1  H2  EPW O   H1  H2  EPW O   H1  H2  EPW O   H1  H2  EPW O   H1  H2  
EPW O   H1  H2  EPW O   H1  H2  EPW O   H1  H2  EPW O   H1  H2  EPW O   H1  H2  
EPW O   H1  H2  EPW O   H1  H2  EPW O   H1  H2  EPW O   H1  H2  EPW O   H1  H2  
EPW O   H1  H2  EPW O   H1  H2  EPW O   H1  H2  EPW O   H1  H2  EPW O   H1  H2  
EPW O   H1  H2  EPW O   H1  H2  EPW O   H1  H2  EPW O   H1  H2  EPW O   H1  H2  
EPW O   H1  H2  EPW O   H1  H2  EPW O   H1  H2  EPW O   H1  H2  EPW O   H1  H2  
EPW O   H1  H2  EPW O   H1  H2  EPW O   H1  H2  EPW O   H1  H2  EPW O   H1  H2  
EPW O   H1  H2  EPW O   H1  H2  EPW O   H1  H2  EPW O   H1  H2  EPW O   H1  H2  
EPW O   H1  H2  EPW O   H1  H2  EPW O   H1  H2  EPW O   H1  H2  EPW O   H1  H2  
EPW O   H1  H2  EPW O   H1  H2  EPW O   H1  H2  EPW O   H1  H2  EPW O   H1  H2  
EPW O   H1  H2  EPW O   H1  H2  EPW O   H1  H2  EPW O   H1  H2  EPW O   H1  H2  
EPW O   H1  H2  EPW O   H1  H2  EPW O   H1  H2  EPW O   H1  H2  EPW O   H1  H2  
EPW O   H1  H2  EPW O   H1  H2  EPW O   H1  H2  EPW O   H1  H2  EPW O   H1  H2  
EPW O   H1  H2  EPW O   H1  H2  EPW O   H1  H2  EPW O   H1  H2  EPW O   H1  H2  
EPW O   H1  H2  EPW O   H1  H2  EPW O   H1  H2  EPW O   H1  H2  EPW O   H1  H2  
EPW O   H1  H2  EPW O   H1  H2  EPW O   H1  H2  EPW O   H1  H2  EPW O   H1  H2  
EPW O   H1  H2  EPW O   H1  H2  EPW O   H1  H2  EPW O   H1  H2  EPW O   H1  H2  
EPW O   H1  H2  EPW O   H1  H2  EPW O   H1  H2  EPW O   H1  H2  EPW O   H1  H2  
EPW O   H1  H2  EPW O   H1  H2  EPW O   H1  H2  EPW O   H1  H2  EPW O   H1  H2  
EPW O   H1  H2  EPW O   H1  H2  EPW O   H1  H2  EPW O   H1  H2  EPW O   H1  H2  
EPW O   H1  H2  EPW O   H1  H2  EPW O   H1  H2  EPW O   H1  H2  EPW O   H1  H2  
EPW O   H1  H2  EPW O   H1  H2  EPW O   H1  H2  EPW O   H1  H2  EPW O   H1  H2  
EPW O   H1  H2  EPW O   H1  H2  EPW O   H1  H2  EPW O   H1  H2  EPW O   H1  H2  
EPW O   H1  H2  EPW O   H1  H2  EPW O   H1  H2  EPW O   H1  H2  EPW O   H1  H2  
EPW O   H1  H2  EPW O   H1  H2  EPW O   H1  H2  EPW O   H1  H2  EPW O   H1  H2  
EPW O   H1  H2  EPW O   H1  H2  EPW O   H1  H2  EPW O   H1  H2  EPW O   H1  H2  
EPW O   H1  H2  EPW O   H1  H2  EPW O   H1  H2  EPW O   H1  H2  EPW O   H1  H2  
EPW O   H1  H2  EPW O   H1  H2  EPW O   H1  H2  EPW O   H1  H2  EPW O   H1  H2  
EPW O   H1  H2  EPW O   H1  H2  EPW O   H1  H2  EPW O   H1  H2  EPW O   H1  H2  
EPW O   H1  H2  EPW O   H1  H2  EPW O   H1  H2  EPW O   H1  H2  EPW O   H1  H2  
EPW O   H1  H2  EPW O   H1  H2  EPW O   H1  H2  EPW O   H1  H2  EPW O   H1  H2  
EPW O   H1  H2  EPW O   H1  H2  EPW O   H1  H2  EPW O   H1  H2  EPW O   H1  H2  
EPW O   H1  H2  EPW O   H1  H2  EPW O   H1  H2  EPW O   H1  H2  EPW O   H1  H2  
EPW O   H1  H2  EPW O   H1  H2  EPW O   H1  H2  EPW O   H1  H2  EPW O   H1  H2  
EPW O   H1  H2  EPW O   H1  H2  EPW O   H1  H2  EPW O   H1  H2  EPW O   H1  H2  
EPW O   H1  H2  EPW O   H1  H2  EPW O   H1  H2  EPW O   H1  H2  EPW O   H1  H2  
EPW O   H1  H2  EPW O   H1  H2  EPW O   H1  H2  EPW O   H1  H2  EPW O   H1  H2  
EPW O   H1  H2  EPW O   H1  H2  EPW O   H1  H2  EPW O   H1  H2  EPW O   H1  H2  
EPW O   H1  H2  EPW O   H1  H2  EPW O   H1  H2  EPW O   H1  H2  EPW O   H1  H2  
EPW O   H1  H2  EPW O   H1  H2  EPW O   H1  H2  EPW O   H1  H2  EPW O   H1  H2  
EPW O   H1  H2  EPW O   H1  H2  EPW O   H1  H2  EPW O   H1  H2  EPW O   H1  H2  
EPW O   H1  H2  EPW O   H1  H2  EPW O   H1  H2  EPW O   H1  H2  EPW O   H1  H2  
EPW O   H1  H2  EPW O   H1  H2  EPW O   H1  H2  EPW O   H1  H2  EPW O   H1  H2  
EPW O   H1  H2  EPW O   H1  H2  EPW O   H1  H2  EPW O   H1  H2  EPW O   H1  H2  
EPW O   H1  H2  EPW O   H1  H2  EPW O   H1  H2  EPW O   H1  H2  EPW O   H1  H2  
EPW O   H1  H2  EPW O   H1  H2  EPW O   H1  H2  EPW O   H1  H2  EPW O   H1  H2  
EPW O   H1  H2  EPW O   H1  H2  EPW O   H1  H2  EPW O   H1  H2  EPW O   H1  H2  
EPW O   H1  H2  EPW O   H1  H2  EPW O   H1  H2  EPW O   H1  H2  EPW O   H1  H2  
EPW O   H1  H2  EPW O   H1  H2  EPW O   H1  H2  EPW O   H1  H2  EPW O   H1  H2  
EPW O   H1  H2  EPW O   H1  H2  EPW O   H1  H2  EPW O   H1  H2  EPW O   H1  H2  
EPW O   H1  H2  EPW O   H1  H2  EPW O   H1  H2  EPW O   H1  H2  EPW O   H1  H2  
EPW O   H1  H2  EPW O   H1  H2  EPW O   H1  H2  EPW O   H1  H2  EPW O   H1  H2  
EPW O   H1  H2  EPW O   H1  H2  EPW O   H1  H2  EPW O   H1  H2  EPW O   H1  H2  
EPW O   H1  H2  EPW O   H1  H2  EPW O   H1  H2  EPW O   H1  H2  EPW O   H1  H2  
EPW O   H1  H2  EPW O   H1  H2  EPW O   H1  H2  EPW O   H1  H2  EPW O   H1  H2  
EPW O   H1  H2  EPW O   H1  H2  EPW O   H1  H2  EPW O   H1  H2  EPW O   H1  H2  
EPW O   H1  H2  EPW O   H1  H2  EPW O   H1  H2  EPW O   H1  H2  EPW O   H1  H2  
EPW O   H1  H2  EPW O   H1  H2  EPW O   H1  H2  EPW O   H1  H2  EPW O   H1  H2  
EPW O   H1  H2  EPW O   H1  H2  EPW O   H1  H2  EPW O   H1  H2  EPW O   H1  H2  
EPW O   H1  H2  EPW O   H1  H2  EPW O   H1  H2  EPW O   H1  H2  EPW O   H1  H2  
EPW O   H1  H2  EPW O   H1  H2  EPW O   H1  H2  EPW O   H1  H2  EPW O   H1  H2  
EPW O   H1  H2  EPW O   H1  H2  EPW O   H1  H2  EPW O   H1  H2  EPW O   H1  H2  
EPW O   H1  H2  EPW O   H1  H2  EPW O   H1  H2  EPW O   H1  H2  EPW O   H1  H2  
EPW O   H1  H2  EPW O   H1  H2  EPW O   H1  H2  EPW O   H1  H2  EPW O   H1  H2  
EPW O   H1  H2  EPW O   H1  H2  EPW O   H1  H2  EPW O   H1  H2  EPW O   H1  H2  
EPW O   H1  H2  EPW O   H1  H2  EPW O   H1  H2  EPW O   H1  H2  EPW O   H1  H2  
EPW O   H1  H2  EPW O   H1  H2  EPW O   H1  H2  EPW O   H1  H2  EPW O   H1  H2  
EPW O   H1  H2  EPW O   H1  H2  EPW O   H1  H2  EPW O   H1  H2  EPW O   H1  H2  
EPW O   H1  H2  EPW O   H1  H2  EPW O   H1  H2  EPW O   H1  H2  EPW O   H1  H2  
EPW O   H1  H2  EPW O   H1  H2  EPW O   H1  H2  EPW O   H1  H2  EPW O   H1  H2  
EPW O   H1  H2  EPW O   H1  H2  EPW O   H1  H2  EPW O   H1  H2  EPW O   H1  H2  
EPW O   H1  H2  EPW O   H1  H2  EPW O   H1  H2  EPW O   H1  H2  EPW O   H1  H2  
EPW O   H1  H2  EPW O   H1  H2  EPW O   H1  H2  EPW O   H1  H2  EPW O   H1  H2  
EPW O   H1  H2  EPW O   H1  H2  EPW O   H1  H2  EPW O   H1  H2  EPW O   H1  H2  
EPW O   H1  H2  EPW O   H1  H2  EPW O   H1  H2  EPW O   H1  H2  EPW O   H1  H2  
EPW O   H1  H2  EPW O   H1  H2  EPW O   H1  H2  EPW O   H1  H2  EPW O   H1  H2  
EPW O   H1  H2  EPW O   H1  H2  EPW O   H1  H2  EPW O   H1  H2  EPW O   H1  H2  
EPW O   H1  H2  EPW O   H1  H2  EPW O   H1  H2  EPW O   H1  H2  EPW O   H1  H2  
EPW O   H1  H2  EPW O   H1  H2  EPW O   H1  H2  EPW O   H1  H2  EPW O   H1  H2  
EPW O   H1  H2  EPW O   H1  H2  EPW O   H1  H2  EPW O   H1  H2  EPW O   H1  H2  
EPW O   H1  H2  EPW O   H1  H2  EPW O   H1  H2  EPW O   H1  H2  EPW O   H1  H2  
EPW O   H1  H2  EPW O   H1  H2  EPW O   H1  H2  EPW O   H1  H2  EPW O   H1  H2  
EPW O   H1  H2  EPW O   H1  H2  EPW O   H1  H2  EPW O   H1  H2  EPW O   H1  H2  
EPW O   H1  H2  EPW O   H1  H2  EPW O   H1  H2  EPW O   H1  H2  EPW O   H1  H2  
EPW O   H1  H2  EPW O   H1  H2  EPW O   H1  H2  EPW O   H1  H2  EPW O   H1  H2  
EPW O   H1  H2  EPW O   H1  H2  EPW O   H1  H2  EPW O   H1  H2  EPW O   H1  H2  
EPW O   H1  H2  EPW O   H1  H2  EPW O   H1  H2  EPW O   H1  H2  EPW O   H1  H2  
EPW O   H1  H2  EPW O   H1  H2  EPW O   H1  H2  EPW O   H1  H2  EPW O   H1  H2  
EPW O   H1  H2  EPW O   H1  H2  EPW O   H1  H2  EPW O   H1  H2  EPW O   H1  H2  
EPW O   H1  H2  EPW O   H1  H2  EPW O   H1  H2  EPW O   H1  H2  EPW O   H1  H2  
EPW O   H1  H2  EPW O   H1  H2  EPW O   H1  H2  EPW O   H1  H2  EPW O   H1  H2  
EPW O   H1  H2  EPW O   H1  H2  EPW O   H1  H2  EPW O   H1  H2  EPW O   H1  H2  
EPW O   H1  H2  EPW O   H1  H2  EPW O   H1  H2  EPW O   H1  H2  EPW O   H1  H2  
EPW O   H1  H2  EPW O   H1  H2  EPW O   H1  H2  EPW O   H1  H2  EPW O   H1  H2  
EPW O   H1  H2  EPW O   H1  H2  EPW O   H1  H2  EPW O   H1  H2  EPW O   H1  H2  
EPW O   H1  H2  EPW O   H1  H2  EPW O   H1  H2  EPW O   H1  H2  EPW O   H1  H2  
EPW O   H1  H2  EPW O   H1  H2  EPW O   H1  H2  EPW O   H1  H2  EPW O   H1  H2  
EPW O   H1  H2  EPW O   H1  H2  EPW O   H1  H2  EPW O   H1  H2  EPW O   H1  H2  
EPW O   H1  H2  EPW O   H1  H2  EPW O   H1  H2  EPW O   H1  H2  EPW O   H1  H2  
EPW O   H1  H2  EPW O   H1  H2  EPW O   H1  H2  EPW O   H1  H2  EPW O   H1  H2  
EPW O   H1  H2  EPW O   H1  H2  EPW O   H1  H2  EPW O   H1  H2  EPW O   H1  H2  
EPW O   H1  H2  EPW O   H1  H2  EPW O   H1  H2  EPW O   H1  H2  EPW O   H1  H2  
EPW O   H1  H2  EPW O   H1  H2  EPW O   H1  H2  EPW O   H1  H2  EPW O   H1  H2  
EPW O   H1  H2  EPW O   H1  H2  EPW O   H1  H2  EPW O   H1  H2  EPW O   H1  H2  
EPW O   H1  H2  EPW O   H1  H2  EPW O   H1  H2  EPW O   H1  H2  EPW O   H1  H2  
EPW O   H1  H2  EPW O   H1  H2  EPW O   H1  H2  EPW O   H1  H2  EPW O   H1  H2  
EPW O   H1  H2  EPW O   H1  H2  EPW O   H1  H2  EPW O   H1  H2  EPW O   H1  H2  
EPW O   H1  H2  EPW O   H1  H2  EPW O   H1  H2  EPW O   H1  H2  EPW O   H1  H2  
EPW O   H1  H2  EPW O   H1  H2  EPW O   H1  H2  EPW O   H1  H2  EPW O   H1  H2  
EPW O   H1  H2  EPW O   H1  H2  EPW O   H1  H2  EPW O   H1  H2  EPW O   H1  H2  
EPW O   H1  H2  EPW O   H1  H2  EPW O   H1  H2  EPW O   H1  H2  EPW O   H1  H2  
EPW O   H1  H2  EPW O   H1  H2  EPW O   H1  H2  EPW O   H1  H2  EPW O   H1  H2  
EPW O   H1  H2  EPW O   H1  H2  EPW O   H1  H2  EPW O   H1  H2  EPW O   H1  H2  
EPW O   H1  H2  EPW O   H1  H2  EPW O   H1  H2  EPW O   H1  H2  EPW O   H1  H2  
EPW O   H1  H2  EPW O   H1  H2  EPW O   H1  H2  EPW O   H1  H2  EPW O   H1  H2  
EPW O   H1  H2  EPW O   H1  H2  EPW O   H1  H2  EPW O   H1  H2  EPW O   H1  H2  
EPW O   H1  H2  EPW O   H1  H2  EPW O   H1  H2  EPW O   H1  H2  EPW O   H1  H2  
EPW O   H1  H2  EPW O   H1  H2  EPW O   H1  H2  EPW O   H1  H2  EPW O   H1  H2  
EPW O   H1  H2  EPW O   H1  H2  EPW O   H1  H2  EPW O   H1  H2  EPW O   H1  H2  
EPW O   H1  H2  EPW O   H1  H2  EPW O   H1  H2  EPW O   H1  H2  EPW O   H1  H2  
EPW O   H1  H2  EPW O   H1  H2  EPW O   H1  H2  EPW O   H1  H2  EPW O   H1  H2  
EPW O   H1  H2  EPW O   H1  H2  EPW O   H1  H2  EPW O   H1  H2  EPW O   H1  H2  
EPW O   H1  H2  EPW O   H1  H2  EPW O   H1  H2  EPW O   H1  H2  EPW O   H1  H2  
EPW O   H1  H2  EPW O   H1  H2  EPW O   H1  H2  EPW O   H1  H2  EPW O   H1  H2  
EPW O   H1  H2  EPW O   H1  H2  EPW O   H1  H2  EPW O   H1  H2  EPW O   H1  H2  
EPW O   H1  H2  EPW O   H1  H2  EPW O   H1  H2  EPW O   H1  H2  EPW O   H1  H2  
EPW O   H1  H2  EPW O   H1  H2  EPW O   H1  H2  EPW O   H1  H2  EPW O   H1  H2  
EPW O   H1  H2  EPW O   H1  H2  EPW O   H1  H2  EPW O   H1  H2  EPW O   H1  H2  
EPW O   H1  H2  EPW O   H1  H2  EPW O   H1  H2  EPW O   H1  H2  EPW O   H1  H2  
EPW O   H1  H2  EPW O   H1  H2  EPW O   H1  H2  EPW O   H1  H2  EPW O   H1  H2  
EPW O   H1  H2  EPW O   H1  H2  EPW O   H1  H2  EPW O   H1  H2  EPW O   H1  H2  
EPW O   H1  H2  EPW O   H1  H2  EPW O   H1  H2  EPW O   H1  H2  EPW O   H1  H2  
EPW O   H1  H2  EPW O   H1  H2  EPW O   H1  H2  EPW O   H1  H2  EPW O   H1  H2  
EPW O   H1  H2  EPW O   H1  H2  EPW O   H1  H2  EPW O   H1  H2  EPW O   H1  H2  
EPW O   H1  H2  EPW O   H1  H2  EPW O   H1  H2  EPW O   H1  H2  EPW O   H1  H2  
EPW O   H1  H2  EPW O   H1  H2  EPW O   H1  H2  EPW O   H1  H2  EPW O   H1  H2  
EPW O   H1  H2  EPW O   H1  H2  EPW O   H1  H2  EPW O   H1  H2  EPW O   H1  H2  
EPW O   H1  H2  EPW O   H1  H2  EPW O   H1  H2  EPW O   H1  H2  EPW O   H1  H2  
EPW O   H1  H2  EPW O   H1  H2  EPW O   H1  H2  EPW O   H1  H2  EPW O   H1  H2  
EPW O   H1  H2  EPW O   H1  H2  EPW O   H1  H2  EPW O   H1  H2  EPW O   H1  H2  
EPW O   H1  H2  EPW O   H1  H2  EPW O   H1  H2  EPW O   H1  H2  EPW O   H1  H2  
EPW O   H1  H2  EPW O   H1  H2  EPW O   H1  H2  EPW O   H1  H2  EPW O   H1  H2  
EPW O   H1  H2  EPW O   H1  H2  EPW O   H1  H2  EPW O   H1  H2  EPW O   H1  H2  
EPW O   H1  H2  EPW O   H1  H2  EPW O   H1  H2  EPW O   H1  H2  EPW O   H1  H2  
EPW O   H1  H2  EPW O   H1  H2  EPW O   H1  H2  EPW O   H1  H2  EPW O   H1  H2  
EPW O   H1  H2  EPW O   H1  H2  EPW O   H1  H2  EPW O   H1  H2  EPW O   H1  H2  
EPW O   H1  H2  EPW O   H1  H2  EPW O   H1  H2  EPW O   H1  H2  EPW O   H1  H2  
EPW O   H1  H2  EPW O   H1  H2  EPW O   H1  H2  EPW O   H1  H2  EPW O   H1  H2  
EPW O   H1  H2  EPW O   H1  H2  EPW O   H1  H2  EPW O   H1  H2  EPW O   H1  H2  
EPW O   H1  H2  EPW O   H1  H2  EPW O   H1  H2  EPW O   H1  H2  EPW O   H1  H2  
EPW O   H1  H2  EPW O   H1  H2  EPW O   H1  H2  EPW O   H1  H2  EPW O   H1  H2  
EPW O   H1  H2  EPW O   H1  H2  EPW O   H1  H2  EPW O   H1  H2  EPW O   H1  H2  
EPW O   H1  H2  EPW O   H1  H2  EPW O   H1  H2  EPW O   H1  H2  EPW O   H1  H2  
EPW O   H1  H2  EPW O   H1  H2  EPW O   H1  H2  EPW O   H1  H2  EPW O   H1  H2  
EPW O   H1  H2  EPW O   H1  H2  EPW O   H1  H2  EPW O   H1  H2  EPW O   H1  H2  
EPW O   H1  H2  EPW O   H1  H2  EPW O   H1  H2  EPW O   H1  H2  EPW O   H1  H2  
EPW O   H1  H2  EPW O   H1  H2  EPW O   H1  H2  EPW O   H1  H2  EPW O   H1  H2  
EPW O   H1  H2  EPW O   H1  H2  EPW O   H1  H2  EPW O   H1  H2  EPW O   H1  H2  
EPW O   H1  H2  EPW O   H1  H2  EPW O   H1  H2  EPW O   H1  H2  EPW O   H1  H2  
EPW O   H1  H2  EPW O   H1  H2  EPW O   H1  H2  EPW O   H1  H2  EPW O   H1  H2  
EPW O   H1  H2  EPW O   H1  H2  EPW O   H1  H2  EPW O   H1  H2  EPW O   H1  H2  
EPW O   H1  H2  EPW O   H1  H2  EPW O   H1  H2  EPW O   H1  H2  EPW O   H1  H2  
EPW O   H1  H2  EPW O   H1  H2  EPW O   H1  H2  EPW O   H1  H2  EPW O   H1  H2  
EPW O   H1  H2  EPW O   H1  H2  EPW O   H1  H2  EPW O   H1  H2  EPW O   H1  H2  
EPW O   H1  H2  EPW O   H1  H2  EPW O   H1  H2  EPW O   H1  H2  EPW O   H1  H2  
EPW O   H1  H2  EPW O   H1  H2  EPW O   H1  H2  EPW O   H1  H2  EPW O   H1  H2  
EPW O   H1  H2  EPW O   H1  H2  EPW O   H1  H2  EPW O   H1  H2  EPW O   H1  H2  
EPW O   H1  H2  EPW O   H1  H2  EPW O   H1  H2  EPW O   H1  H2  EPW O   H1  H2  
EPW O   H1  H2  EPW O   H1  H2  EPW O   H1  H2  EPW O   H1  H2  EPW O   H1  H2  
EPW O   H1  H2  EPW O   H1  H2  EPW O   H1  H2  EPW O   H1  H2  EPW O   H1  H2  
EPW O   H1  H2  EPW O   H1  H2  EPW O   H1  H2  EPW O   H1  H2  EPW O   H1  H2  
EPW O   H1  H2  EPW O   H1  H2  EPW O   H1  H2  EPW O   H1  H2  EPW O   H1  H2  
EPW O   H1  H2  EPW O   H1  H2  EPW O   H1  H2  EPW O   H1  H2  EPW O   H1  H2  
EPW O   H1  H2  EPW O   H1  H2  EPW O   H1  H2  EPW O   H1  H2  EPW O   H1  H2  
EPW O   H1  H2  EPW O   H1  H2  EPW O   H1  H2  EPW O   H1  H2  EPW O   H1  H2  
EPW O   H1  H2  EPW O   H1  H2  EPW O   H1  H2  EPW O   H1  H2  EPW O   H1  H2  
EPW O   H1  H2  EPW O   H1  H2  EPW O   H1  H2  EPW O   H1  H2  EPW O   H1  H2  
EPW O   H1  H2  EPW O   H1  H2  EPW O   H1  H2  EPW O   H1  H2  EPW O   H1  H2  
EPW O   H1  H2  EPW O   H1  H2  EPW O   H1  H2  EPW O   H1  H2  EPW O   H1  H2  
EPW O   H1  H2  EPW O   H1  H2  EPW O   H1  H2  EPW O   H1  H2  EPW O   H1  H2  
EPW O   H1  H2  EPW O   H1  H2  EPW O   H1  H2  EPW O   H1  H2  EPW O   H1  H2  
EPW O   H1  H2  EPW O   H1  H2  EPW O   H1  H2  EPW O   H1  H2  EPW O   H1  H2  
EPW O   H1  H2  EPW O   H1  H2  EPW O   H1  H2  EPW O   H1  H2  EPW O   H1  H2  
EPW O   H1  H2  EPW O   H1  H2  EPW O   H1  H2  EPW O   H1  H2  EPW O   H1  H2  
EPW O   H1  H2  EPW O   H1  H2  EPW O   H1  H2  EPW O   H1  H2  EPW O   H1  H2  
EPW O   H1  H2  EPW O   H1  H2  EPW O   H1  H2  EPW O   H1  H2  EPW O   H1  H2  
EPW O   H1  H2  EPW O   H1  H2  EPW O   H1  H2  EPW O   H1  H2  EPW O   H1  H2  
EPW O   H1  H2  EPW O   H1  H2  EPW O   H1  H2  EPW O   H1  H2  EPW O   H1  H2  
EPW O   H1  H2  EPW O   H1  H2  EPW O   H1  H2  EPW O   H1  H2  EPW O   H1  H2  
EPW O   H1  H2  EPW O   H1  H2  EPW O   H1  H2  EPW O   H1  H2  EPW O   H1  H2  
EPW O   H1  H2  EPW O   H1  H2  EPW O   H1  H2  EPW O   H1  H2  EPW O   H1  H2  
EPW O   H1  H2  EPW O   H1  H2  EPW O   H1  H2  EPW O   H1  H2  EPW O   H1  H2  
EPW O   H1  H2  EPW O   H1  H2  EPW O   H1  H2  EPW O   H1  H2  EPW O   H1  H2  
EPW O   H1  H2  EPW O   H1  H2  EPW O   H1  H2  EPW O   H1  H2  EPW O   H1  H2  
EPW O   H1  H2  EPW O   H1  H2  EPW O   H1  H2  EPW O   H1  H2  EPW O   H1  H2  
EPW O   H1  H2  EPW O   H1  H2  EPW O   H1  H2  EPW O   H1  H2  EPW O   H1  H2  
EPW O   H1  H2  EPW O   H1  H2  EPW O   H1  H2  EPW O   H1  H2  EPW O   H1  H2  
EPW O   H1  H2  EPW O   H1  H2  EPW O   H1  H2  EPW O   H1  H2  EPW O   H1  H2  
EPW O   H1  H2  EPW O   H1  H2  EPW O   H1  H2  EPW O   H1  H2  EPW O   H1  H2  
EPW O   H1  H2  EPW O   H1  H2  EPW O   H1  H2  EPW O   H1  H2  EPW O   H1  H2  
EPW O   H1  H2  EPW O   H1  H2  EPW O   H1  H2  EPW O   H1  H2  EPW O   H1  H2  
EPW O   H1  H2  EPW O   H1  H2  EPW O   H1  H2  EPW O   H1  H2  EPW O   H1  H2  
EPW O   H1  H2  EPW O   H1  H2  EPW O   H1  H2  EPW O   H1  H2  EPW O   H1  H2  
EPW O   H1  H2  EPW O   H1  H2  EPW O   H1  H2  EPW O   H1  H2  EPW O   H1  H2  
EPW O   H1  H2  EPW O   H1  H2  EPW O   H1  H2  EPW O   H1  H2  EPW O   H1  H2  
EPW O   H1  H2  EPW O   H1  H2  EPW O   H1  H2  EPW O   H1  H2  EPW O   H1  H2  
EPW O   H1  H2  EPW O   H1  H2  EPW O   H1  H2  EPW O   H1  H2  EPW O   H1  H2  
EPW O   H1  H2  EPW O   H1  H2  EPW O   H1  H2  EPW O   H1  H2  EPW O   H1  H2  
EPW O   H1  H2  EPW O   H1  H2  EPW O   H1  H2  EPW O   H1  H2  EPW O   H1  H2  
EPW O   H1  H2  EPW O   H1  H2  EPW O   H1  H2  EPW O   H1  H2  EPW O   H1  H2  
EPW O   H1  H2  EPW O   H1  H2  EPW O   H1  H2  EPW O   H1  H2  EPW O   H1  H2  
EPW O   H1  H2  EPW O   H1  H2  EPW O   H1  H2  EPW O   H1  H2  EPW O   H1  H2  
EPW O   H1  H2  EPW O   H1  H2  EPW O   H1  H2  EPW O   H1  H2  EPW O   H1  H2  
EPW O   H1  H2  EPW O   H1  H2  EPW O   H1  H2  EPW O   H1  H2  EPW O   H1  H2  
EPW O   H1  H2  EPW O   H1  H2  EPW O   H1  H2  EPW O   H1  H2  EPW O   H1  H2  
EPW O   H1  H2  EPW O   H1  H2  EPW O   H1  H2  EPW O   H1  H2  EPW O   H1  H2  
EPW O   H1  H2  EPW O   H1  H2  EPW O   H1  H2  EPW O   H1  H2  EPW O   H1  H2  
EPW O   H1  H2  EPW O   H1  H2  EPW O   H1  H2  EPW O   H1  H2  EPW O   H1  H2  
EPW O   H1  H2  EPW O   H1  H2  EPW O   H1  H2  EPW O   H1  H2  EPW O   H1  H2  
EPW O   H1  H2  EPW O   H1  H2  EPW O   H1  H2  EPW O   H1  H2  EPW O   H1  H2  
EPW O   H1  H2  EPW O   H1  H2  EPW O   H1  H2  EPW O   H1  H2  EPW O   H1  H2  
EPW O   H1  H2  EPW O   H1  H2  EPW O   H1  H2  EPW O   H1  H2  EPW O   H1  H2  
EPW O   H1  H2  EPW O   H1  H2  EPW O   H1  H2  EPW O   H1  H2  EPW O   H1  H2  
EPW O   H1  H2  EPW O   H1  H2  EPW O   H1  H2  EPW O   H1  H2  EPW O   H1  H2  
EPW O   H1  H2  EPW O   H1  H2  EPW O   H1  H2  EPW O   H1  H2  EPW O   H1  H2  
EPW O   H1  H2  EPW O   H1  H2  EPW O   H1  H2  EPW O   H1  H2  EPW O   H1  H2  
EPW O   H1  H2  EPW O   H1  H2  EPW O   H1  H2  EPW O   H1  H2  EPW O   H1  H2  
EPW O   H1  H2  EPW O   H1  H2  EPW O   H1  H2  EPW O   H1  H2  EPW O   H1  H2  
EPW O   H1  H2  EPW O   H1  H2  EPW O   H1  H2  EPW O   H1  H2  EPW O   H1  H2  
EPW O   H1  H2  EPW 
%FLAG CHARGE                                                                    
%FORMAT(5E16.8)                                                                 
  2.57663322E+00  3.63899331E+00  3.63899331E+00  3.63899331E+00  1.75298526E+00
  1.61996247E+00 -1.08787131E+00  5.46669000E-01  5.46669000E-01  5.46669000E-01
  1.12304035E+01 -1.04268001E+01 -7.57501011E+00  4.95464337E+00  6.14091510E-01
  1.49969529E+00 -3.32556975E+00  1.09880469E+00  1.09880469E+00  1.09880469E+00
  1.08841798E+01 -1.03484442E+01 -6.96274083E+00  4.88539863E+00 -3.18343581E+00
  1.94431941E+00 -3.81392739E+00  1.39218372E+00  1.39218372E+00  1.39218372E+00
  1.40876601E+01 -1.46780627E+01 -1.46780627E+01  0.00000000E+00  1.23755293E+01
  1.23755293E+01 -2.47510585E+01  0.00000000E+00  1.23755293E+01  1.23755293E+01
 -2.47510585E+01  0.00000000E+00  1.23755293E+01  1.23755293E+01 -2.47510585E+01
  0.00000000E+00  1.23755293E+01  1.23755293E+01 -2.47510585E+01  0.00000000E+00
  1.23755293E+01  1.23755293E+01 -2.47510585E+01  0.00000000E+00  1.23755293E+01
  1.23755293E+01 -2.47510585E+01  0.00000000E+00  1.23755293E+01  1.23755293E+01
 -2.47510585E+01  0.00000000E+00  1.23755293E+01  1.23755293E+01 -2.47510585E+01
  0.00000000E+00  1.23755293E+01  1.23755293E+01 -2.47510585E+01  0.00000000E+00
  1.23755293E+01  1.23755293E+01 -2.47510585E+01  0.00000000E+00  1.23755293E+01
  1.23755293E+01 -2.47510585E+01  0.00000000E+00  1.23755293E+01  1.23755293E+01
 -2.47510585E+01  0.00000000E+00  1.23755293E+01  1.23755293E+01 -2.47510585E+01
  0.00000000E+00  1.23755293E+01  1.23755293E+01 -2.47510585E+01  0.00000000E+00
  1.23755293E+01  1.23755293E+01 -2.47510585E+01  0.00000000E+00  1.23755293E+01
  1.23755293E+01 -2.47510585E+01  0.00000000E+00  1.23755293E+01  1.23755293E+01
 -2.47510585E+01  0.00000000E+00  1.23755293E+01  1.23755293E+01 -2.47510585E+01
  0.00000000E+00  1.23755293E+01  1.23755293E+01 -2.47510585E+01  0.00000000E+00
  1.23755293E+01  1.23755293E+01 -2.47510585E+01  0.00000000E+00  1.23755293E+01
  1.23755293E+01 -2.47510585E+01  0.00000000E+00  1.23755293E+01  1.23755293E+01
 -2.47510585E+01  0.00000000E+00  1.23755293E+01  1.23755293E+01 -2.47510585E+01
  0.00000000E+00  1.23755293E+01  1.23755293E+01 -2.47510585E+01  0.00000000E+00
  1.23755293E+01  1.23755293E+01 -2.47510585E+01  0.00000000E+00  1.23755293E+01
  1.23755293E+01 -2.47510585E+01  0.00000000E+00  1.23755293E+01  1.23755293E+01
 -2.47510585E+01  0.00000000E+00  1.23755293E+01  1.23755293E+01 -2.47510585E+01
  0.00000000E+00  1.23755293E+01  1.23755293E+01 -2.47510585E+01  0.00000000E+00
  1.23755293E+01  1.23755293E+01 -2.47510585E+01  0.00000000E+00  1.23755293E+01
  1.23755293E+01 -2.47510585E+01  0.00000000E+00  1.23755293E+01  1.23755293E+01
 -2.47510585E+01  0.00000000E+00  1.23755293E+01  1.23755293E+01 -2.47510585E+01
  0.00000000E+00  1.23755293E+01  1.23755293E+01 -2.47510585E+01  0.00000000E+00
  1.23755293E+01  1.23755293E+01 -2.47510585E+01  0.00000000E+00  1.23755293E+01
  1.23755293E+01 -2.47510585E+01  0.00000000E+00  1.23755293E+01  1.23755293E+01
 -2.47510585E+01  0.00000000E+00  1.23755293E+01  1.23755293E+01 -2.47510585E+01
  0.00000000E+00  1.23755293E+01  1.23755293E+01 -2.47510585E+01  0.00000000E+00
  1.23755293E+01  1.23755293E+01 -2.47510585E+01  0.00000000E+00  1.23755293E+01
  1.23755293E+01 -2.47510585E+01  0.00000000E+00  1.23755293E+01  1.23755293E+01
 -2.47510585E+01  0.00000000E+00  1.23755293E+01  1.23755293E+01 -2.47510585E+01
  0.00000000E+00  1.23755293E+01  1.23755293E+01 -2.47510585E+01  0.00000000E+00
  1.23755293E+01  1.23755293E+01 -2.47510585E+01  0.00000000E+00  1.23755293E+01
  1.23755293E+01 -2.47510585E+01  0.00000000E+00  1.23755293E+01  1.23755293E+01
 -2.47510585E+01  0.00000000E+00  1.23755293E+01  1.23755293E+01 -2.47510585E+01
  0.00000000E+00  1.23755293E+01  1.23755293E+01 -2.47510585E+01  0.00000000E+00
  1.23755293E+01  1.23755293E+01 -2.47510585E+01  0.00000000E+00  1.23755293E+01
  1.23755293E+01 -2.47510585E+01  0.00000000E+00  1.23755293E+01  1.23755293E+01
 -2.47510585E+01  0.00000000E+00  1.23755293E+01  1.23755293E+01 -2.47510585E+01
  0.00000000E+00  1.23755293E+01  1.23755293E+01 -2.47510585E+01  0.00000000E+00
  1.23755293E+01  1.23755293E+01 -2.47510585E+01  0.00000000E+00  1.23755293E+01
  1.23755293E+01 -2.47510585E+01  0.00000000E+00  1.23755293E+01  1.23755293E+01
 -2.47510585E+01  0.00000000E+00  1.23755293E+01  1.23755293E+01 -2.47510585E+01
  0.00000000E+00  1.23755293E+01  1.23755293E+01 -2.47510585E+01  0.00000000E+00
  1.23755293E+01  1.23755293E+01 -2.47510585E+01  0.00000000E+00  1.23755293E+01
  1.23755293E+01 -2.47510585E+01  0.00000000E+00  1.23755293E+01  1.23755293E+01
 -2.47510585E+01  0.00000000E+00  1.23755293E+01  1.23755293E+01 -2.47510585E+01
  0.00000000E+00  1.23755293E+01  1.23755293E+01 -2.47510585E+01  0.00000000E+00
  1.23755293E+01  1.23755293E+01 -2.47510585E+01  0.00000000E+00  1.23755293E+01
  1.23755293E+01 -2.47510585E+01  0.00000000E+00  1.23755293E+01  1.23755293E+01
 -2.47510585E+01  0.00000000E+00  1.23755293E+01  1.23755293E+01 -2.47510585E+01
  0.00000000E+00  1.23755293E+01  1.23755293E+01 -2.47510585E+01  0.00000000E+00
  1.23755293E+01  1.23755293E+01 -2.47510585E+01  0.00000000E+00  1.23755293E+01
  1.23755293E+01 -2.47510585E+01  0.00000000E+00  1.23755293E+01  1.23755293E+01
 -2.47510585E+01  0.00000000E+00  1.23755293E+01  1.23755293E+01 -2.47510585E+01
  0.00000000E+00  1.23755293E+01  1.23755293E+01 -2.47510585E+01  0.00000000E+00
  1.23755293E+01  1.23755293E+01 -2.47510585E+01  0.00000000E+00  1.23755293E+01
  1.23755293E+01 -2.47510585E+01  0.00000000E+00  1.23755293E+01  1.23755293E+01
 -2.47510585E+01  0.00000000E+00  1.23755293E+01  1.23755293E+01 -2.47510585E+01
  0.00000000E+00  1.23755293E+01  1.23755293E+01 -2.47510585E+01  0.00000000E+00
  1.23755293E+01  1.23755293E+01 -2.47510585E+01  0.00000000E+00  1.23755293E+01
  1.23755293E+01 -2.47510585E+01  0.00000000E+00  1.23755293E+01  1.23755293E+01
 -2.47510585E+01  0.00000000E+00  1.23755293E+01  1.23755293E+01 -2.47510585E+01
  0.00000000E+00  1.23755293E+01  1.23755293E+01 -2.47510585E+01  0.00000000E+00
  1.23755293E+01  1.23755293E+01 -2.47510585E+01  0.00000000E+00  1.23755293E+01
  1.23755293E+01 -2.47510585E+01  0.00000000E+00  1.23755293E+01  1.23755293E+01
 -2.47510585E+01  0.00000000E+00  1.23755293E+01  1.23755293E+01 -2.47510585E+01
  0.00000000E+00  1.23755293E+01  1.23755293E+01 -2.47510585E+01  0.00000000E+00
  1.23755293E+01  1.23755293E+01 -2.47510585E+01  0.00000000E+00  1.23755293E+01
  1.23755293E+01 -2.47510585E+01  0.00000000E+00  1.23755293E+01  1.23755293E+01
 -2.47510585E+01  0.00000000E+00  1.23755293E+01  1.23755293E+01 -2.47510585E+01
  0.00000000E+00  1.23755293E+01  1.23755293E+01 -2.47510585E+01  0.00000000E+00
  1.23755293E+01  1.23755293E+01 -2.47510585E+01  0.00000000E+00  1.23755293E+01
  1.23755293E+01 -2.47510585E+01  0.00000000E+00  1.23755293E+01  1.23755293E+01
 -2.47510585E+01  0.00000000E+00  1.23755293E+01  1.23755293E+01 -2.47510585E+01
  0.00000000E+00  1.23755293E+01  1.23755293E+01 -2.47510585E+01  0.00000000E+00
  1.23755293E+01  1.23755293E+01 -2.47510585E+01  0.00000000E+00  1.23755293E+01
  1.23755293E+01 -2.47510585E+01  0.00000000E+00  1.23755293E+01  1.23755293E+01
 -2.47510585E+01  0.00000000E+00  1.23755293E+01  1.23755293E+01 -2.47510585E+01
  0.00000000E+00  1.23755293E+01  1.23755293E+01 -2.47510585E+01  0.00000000E+00
  1.23755293E+01  1.23755293E+01 -2.47510585E+01  0.00000000E+00  1.23755293E+01
  1.23755293E+01 -2.47510585E+01  0.00000000E+00  1.23755293E+01  1.23755293E+01
 -2.47510585E+01  0.00000000E+00  1.23755293E+01  1.23755293E+01 -2.47510585E+01
  0.00000000E+00  1.23755293E+01  1.23755293E+01 -2.47510585E+01  0.00000000E+00
  1.23755293E+01  1.23755293E+01 -2.47510585E+01  0.00000000E+00  1.23755293E+01
  1.23755293E+01 -2.47510585E+01  0.00000000E+00  1.23755293E+01  1.23755293E+01
 -2.47510585E+01  0.00000000E+00  1.23755293E+01  1.23755293E+01 -2.47510585E+01
  0.00000000E+00  1.23755293E+01  1.23755293E+01 -2.47510585E+01  0.00000000E+00
  1.23755293E+01  1.23755293E+01 -2.47510585E+01  0.00000000E+00  1.23755293E+01
  1.23755293E+01 -2.47510585E+01  0.00000000E+00  1.23755293E+01  1.23755293E+01
 -2.47510585E+01  0.00000000E+00  1.23755293E+01  1.23755293E+01 -2.47510585E+01
  0.00000000E+00  1.23755293E+01  1.23755293E+01 -2.47510585E+01  0.00000000E+00
  1.23755293E+01  1.23755293E+01 -2.47510585E+01  0.00000000E+00  1.23755293E+01
  1.23755293E+01 -2.47510585E+01  0.00000000E+00  1.23755293E+01  1.23755293E+01
 -2.47510585E+01  0.00000000E+00  1.23755293E+01  1.23755293E+01 -2.47510585E+01
  0.00000000E+00  1.23755293E+01  1.23755293E+01 -2.47510585E+01  0.00000000E+00
  1.23755293E+01  1.23755293E+01 -2.47510585E+01  0.00000000E+00  1.23755293E+01
  1.23755293E+01 -2.47510585E+01  0.00000000E+00  1.23755293E+01  1.23755293E+01
 -2.47510585E+01  0.00000000E+00  1.23755293E+01  1.23755293E+01 -2.47510585E+01
  0.00000000E+00  1.23755293E+01  1.23755293E+01 -2.47510585E+01  0.00000000E+00
  1.23755293E+01  1.23755293E+01 -2.47510585E+01  0.00000000E+00  1.23755293E+01
  1.23755293E+01 -2.47510585E+01  0.00000000E+00  1.23755293E+01  1.23755293E+01
 -2.47510585E+01  0.00000000E+00  1.23755293E+01  1.23755293E+01 -2.47510585E+01
  0.00000000E+00  1.23755293E+01  1.23755293E+01 -2.47510585E+01  0.00000000E+00
  1.23755293E+01  1.23755293E+01 -2.47510585E+01  0.00000000E+00  1.23755293E+01
  1.23755293E+01 -2.47510585E+01  0.00000000E+00  1.23755293E+01  1.23755293E+01
 -2.47510585E+01  0.00000000E+00  1.23755293E+01  1.23755293E+01 -2.47510585E+01
  0.00000000E+00  1.23755293E+01  1.23755293E+01 -2.47510585E+01  0.00000000E+00
  1.23755293E+01  1.23755293E+01 -2.47510585E+01  0.00000000E+00  1.23755293E+01
  1.23755293E+01 -2.47510585E+01  0.00000000E+00  1.23755293E+01  1.23755293E+01
 -2.47510585E+01  0.00000000E+00  1.23755293E+01  1.23755293E+01 -2.47510585E+01
  0.00000000E+00  1.23755293E+01  1.23755293E+01 -2.47510585E+01  0.00000000E+00
  1.23755293E+01  1.23755293E+01 -2.47510585E+01  0.00000000E+00  1.23755293E+01
  1.23755293E+01 -2.47510585E+01  0.00000000E+00  1.23755293E+01  1.23755293E+01
 -2.47510585E+01  0.00000000E+00  1.23755293E+01  1.23755293E+01 -2.47510585E+01
  0.00000000E+00  1.23755293E+01  1.23755293E+01 -2.47510585E+01  0.00000000E+00
  1.23755293E+01  1.23755293E+01 -2.47510585E+01  0.00000000E+00  1.23755293E+01
  1.23755293E+01 -2.47510585E+01  0.00000000E+00  1.23755293E+01  1.23755293E+01
 -2.47510585E+01  0.00000000E+00  1.23755293E+01  1.23755293E+01 -2.47510585E+01
  0.00000000E+00  1.23755293E+01  1.23755293E+01 -2.47510585E+01  0.00000000E+00
  1.23755293E+01  1.23755293E+01 -2.47510585E+01  0.00000000E+00  1.23755293E+01
  1.23755293E+01 -2.47510585E+01  0.00000000E+00  1.23755293E+01  1.23755293E+01
 -2.47510585E+01  0.00000000E+00  1.23755293E+01  1.23755293E+01 -2.47510585E+01
  0.00000000E+00  1.23755293E+01  1.23755293E+01 -2.47510585E+01  0.00000000E+00
  1.23755293E+01  1.23755293E+01 -2.47510585E+01  0.00000000E+00  1.23755293E+01
  1.23755293E+01 -2.47510585E+01  0.00000000E+00  1.23755293E+01  1.23755293E+01
 -2.47510585E+01  0.00000000E+00  1.23755293E+01  1.23755293E+01 -2.47510585E+01
  0.00000000E+00  1.23755293E+01  1.23755293E+01 -2.47510585E+01  0.00000000E+00
  1.23755293E+01  1.23755293E+01 -2.47510585E+01  0.00000000E+00  1.23755293E+01
  1.23755293E+01 -2.47510585E+01  0.00000000E+00  1.23755293E+01  1.23755293E+01
 -2.47510585E+01  0.00000000E+00  1.23755293E+01  1.23755293E+01 -2.47510585E+01
  0.00000000E+00  1.23755293E+01  1.23755293E+01 -2.47510585E+01  0.00000000E+00
  1.23755293E+01  1.23755293E+01 -2.47510585E+01  0.00000000E+00  1.23755293E+01
  1.23755293E+01 -2.47510585E+01  0.00000000E+00  1.23755293E+01  1.23755293E+01
 -2.47510585E+01  0.00000000E+00  1.23755293E+01  1.23755293E+01 -2.47510585E+01
  0.00000000E+00  1.23755293E+01  1.23755293E+01 -2.47510585E+01  0.00000000E+00
  1.23755293E+01  1.23755293E+01 -2.47510585E+01  0.00000000E+00  1.23755293E+01
  1.23755293E+01 -2.47510585E+01  0.00000000E+00  1.23755293E+01  1.23755293E+01
 -2.47510585E+01  0.00000000E+00  1.23755293E+01  1.23755293E+01 -2.47510585E+01
  0.00000000E+00  1.23755293E+01  1.23755293E+01 -2.47510585E+01  0.00000000E+00
  1.23755293E+01  1.23755293E+01 -2.47510585E+01  0.00000000E+00  1.23755293E+01
  1.23755293E+01 -2.47510585E+01  0.00000000E+00  1.23755293E+01  1.23755293E+01
 -2.47510585E+01  0.00000000E+00  1.23755293E+01  1.23755293E+01 -2.47510585E+01
  0.00000000E+00  1.23755293E+01  1.23755293E+01 -2.47510585E+01  0.00000000E+00
  1.23755293E+01  1.23755293E+01 -2.47510585E+01  0.00000000E+00  1.23755293E+01
  1.23755293E+01 -2.47510585E+01  0.00000000E+00  1.23755293E+01  1.23755293E+01
 -2.47510585E+01  0.00000000E+00  1.23755293E+01  1.23755293E+01 -2.47510585E+01
  0.00000000E+00  1.23755293E+01  1.23755293E+01 -2.47510585E+01  0.00000000E+00
  1.23755293E+01  1.23755293E+01 -2.47510585E+01  0.00000000E+00  1.23755293E+01
  1.23755293E+01 -2.47510585E+01  0.00000000E+00  1.23755293E+01  1.23755293E+01
 -2.47510585E+01  0.00000000E+00  1.23755293E+01  1.23755293E+01 -2.47510585E+01
  0.00000000E+00  1.23755293E+01  1.23755293E+01 -2.47510585E+01  0.00000000E+00
  1.23755293E+01  1.23755293E+01 -2.47510585E+01  0.00000000E+00  1.23755293E+01
  1.23755293E+01 -2.47510585E+01  0.00000000E+00  1.23755293E+01  1.23755293E+01
 -2.47510585E+01  0.00000000E+00  1.23755293E+01  1.23755293E+01 -2.47510585E+01
  0.00000000E+00  1.23755293E+01  1.23755293E+01 -2.47510585E+01  0.00000000E+00
  1.23755293E+01  1.23755293E+01 -2.47510585E+01  0.00000000E+00  1.23755293E+01
  1.23755293E+01 -2.47510585E+01  0.00000000E+00  1.23755293E+01  1.23755293E+01
 -2.47510585E+01  0.00000000E+00  1.23755293E+01  1.23755293E+01 -2.47510585E+01
  0.00000000E+00  1.23755293E+01  1.23755293E+01 -2.47510585E+01  0.00000000E+00
  1.23755293E+01  1.23755293E+01 -2.47510585E+01  0.00000000E+00  1.23755293E+01
  1.23755293E+01 -2.47510585E+01  0.00000000E+00  1.23755293E+01  1.23755293E+01
 -2.47510585E+01  0.00000000E+00  1.23755293E+01  1.23755293E+01 -2.47510585E+01
  0.00000000E+00  1.23755293E+01  1.23755293E+01 -2.47510585E+01  0.00000000E+00
  1.23755293E+01  1.23755293E+01 -2.47510585E+01  0.00000000E+00  1.23755293E+01
  1.23755293E+01 -2.47510585E+01  0.00000000E+00  1.23755293E+01  1.23755293E+01
 -2.47510585E+01  0.00000000E+00  1.23755293E+01  1.23755293E+01 -2.47510585E+01
  0.00000000E+00  1.23755293E+01  1.23755293E+01 -2.47510585E+01  0.00000000E+00
  1.23755293E+01  1.23755293E+01 -2.47510585E+01  0.00000000E+00  1.23755293E+01
  1.23755293E+01 -2.47510585E+01  0.00000000E+00  1.23755293E+01  1.23755293E+01
 -2.47510585E+01  0.00000000E+00  1.23755293E+01  1.23755293E+01 -2.47510585E+01
  0.00000000E+00  1.23755293E+01  1.23755293E+01 -2.47510585E+01  0.00000000E+00
  1.23755293E+01  1.23755293E+01 -2.47510585E+01  0.00000000E+00  1.23755293E+01
  1.23755293E+01 -2.47510585E+01  0.00000000E+00  1.23755293E+01  1.23755293E+01
 -2.47510585E+01  0.00000000E+00  1.23755293E+01  1.23755293E+01 -2.47510585E+01
  0.00000000E+00  1.23755293E+01  1.23755293E+01 -2.47510585E+01  0.00000000E+00
  1.23755293E+01  1.23755293E+01 -2.47510585E+01  0.00000000E+00  1.23755293E+01
  1.23755293E+01 -2.47510585E+01  0.00000000E+00  1.23755293E+01  1.23755293E+01
 -2.47510585E+01  0.00000000E+00  1.23755293E+01  1.23755293E+01 -2.47510585E+01
  0.00000000E+00  1.23755293E+01  1.23755293E+01 -2.47510585E+01  0.00000000E+00
  1.23755293E+01  1.23755293E+01 -2.47510585E+01  0.00000000E+00  1.23755293E+01
  1.23755293E+01 -2.47510585E+01  0.00000000E+00  1.23755293E+01  1.23755293E+01
 -2.47510585E+01  0.00000000E+00  1.23755293E+01  1.23755293E+01 -2.47510585E+01
  0.00000000E+00  1.23755293E+01  1.23755293E+01 -2.47510585E+01  0.00000000E+00
  1.23755293E+01  1.23755293E+01 -2.47510585E+01  0.00000000E+00  1.23755293E+01
  1.23755293E+01 -2.47510585E+01  0.00000000E+00  1.23755293E+01  1.23755293E+01
 -2.47510585E+01  0.00000000E+00  1.23755293E+01  1.23755293E+01 -2.47510585E+01
  0.00000000E+00  1.23755293E+01  1.23755293E+01 -2.47510585E+01  0.00000000E+00
  1.23755293E+01  1.23755293E+01 -2.47510585E+01  0.00000000E+00  1.23755293E+01
  1.23755293E+01 -2.47510585E+01  0.00000000E+00  1.23755293E+01  1.23755293E+01
 -2.47510585E+01  0.00000000E+00  1.23755293E+01  1.23755293E+01 -2.47510585E+01
  0.00000000E+00  1.23755293E+01  1.23755293E+01 -2.47510585E+01  0.00000000E+00
  1.23755293E+01  1.23755293E+01 -2.47510585E+01  0.00000000E+00  1.23755293E+01
  1.23755293E+01 -2.47510585E+01  0.00000000E+00  1.23755293E+01  1.23755293E+01
 -2.47510585E+01  0.00000000E+00  1.23755293E+01  1.23755293E+01 -2.47510585E+01
  0.00000000E+00  1.23755293E+01  1.23755293E+01 -2.47510585E+01  0.00000000E+00
  1.23755293E+01  1.23755293E+01 -2.47510585E+01  0.00000000E+00  1.23755293E+01
  1.23755293E+01 -2.47510585E+01  0.00000000E+00  1.23755293E+01  1.23755293E+01
 -2.47510585E+01  0.00000000E+00  1.23755293E+01  1.23755293E+01 -2.47510585E+01
  0.00000000E+00  1.23755293E+01  1.23755293E+01 -2.47510585E+01  0.00000000E+00
  1.23755293E+01  1.23755293E+01 -2.47510585E+01  0.00000000E+00  1.23755293E+01
  1.23755293E+01 -2.47510585E+01  0.00000000E+00  1.23755293E+01  1.23755293E+01
 -2.47510585E+01  0.00000000E+00  1.23755293E+01  1.23755293E+01 -2.47510585E+01
  0.00000000E+00  1.23755293E+01  1.23755293E+01 -2.47510585E+01  0.00000000E+00
  1.23755293E+01  1.23755293E+01 -2.47510585E+01  0.00000000E+00  1.23755293E+01
  1.23755293E+01 -2.47510585E+01  0.00000000E+00  1.23755293E+01  1.23755293E+01
 -2.47510585E+01  0.00000000E+00  1.23755293E+01  1.23755293E+01 -2.47510585E+01
  0.00000000E+00  1.23755293E+01  1.23755293E+01 -2.47510585E+01  0.00000000E+00
  1.23755293E+01  1.23755293E+01 -2.47510585E+01  0.00000000E+00  1.23755293E+01
  1.23755293E+01 -2.47510585E+01  0.00000000E+00  1.23755293E+01  1.23755293E+01
 -2.47510585E+01  0.00000000E+00  1.23755293E+01  1.23755293E+01 -2.47510585E+01
  0.00000000E+00  1.23755293E+01  1.23755293E+01 -2.47510585E+01  0.00000000E+00
  1.23755293E+01  1.23755293E+01 -2.47510585E+01  0.00000000E+00  1.23755293E+01
  1.23755293E+01 -2.47510585E+01  0.00000000E+00  1.23755293E+01  1.23755293E+01
 -2.47510585E+01  0.00000000E+00  1.23755293E+01  1.23755293E+01 -2.47510585E+01
  0.00000000E+00  1.23755293E+01  1.23755293E+01 -2.47510585E+01  0.00000000E+00
  1.23755293E+01  1.23755293E+01 -2.47510585E+01  0.00000000E+00  1.23755293E+01
  1.23755293E+01 -2.47510585E+01  0.00000000E+00  1.23755293E+01  1.23755293E+01
 -2.47510585E+01  0.00000000E+00  1.23755293E+01  1.23755293E+01 -2.47510585E+01
  0.00000000E+00  1.23755293E+01  1.23755293E+01 -2.47510585E+01  0.00000000E+00
  1.23755293E+01  1.23755293E+01 -2.47510585E+01  0.00000000E+00  1.23755293E+01
  1.23755293E+01 -2.47510585E+01  0.00000000E+00  1.23755293E+01  1.23755293E+01
 -2.47510585E+01  0.00000000E+00  1.23755293E+01  1.23755293E+01 -2.47510585E+01
  0.00000000E+00  1.23755293E+01  1.23755293E+01 -2.47510585E+01  0.00000000E+00
  1.23755293E+01  1.23755293E+01 -2.47510585E+01  0.00000000E+00  1.23755293E+01
  1.23755293E+01 -2.47510585E+01  0.00000000E+00  1.23755293E+01  1.23755293E+01
 -2.47510585E+01  0.00000000E+00  1.23755293E+01  1.23755293E+01 -2.47510585E+01
  0.00000000E+00  1.23755293E+01  1.23755293E+01 -2.47510585E+01  0.00000000E+00
  1.23755293E+01  1.23755293E+01 -2.47510585E+01  0.00000000E+00  1.23755293E+01
  1.23755293E+01 -2.47510585E+01  0.00000000E+00  1.23755293E+01  1.23755293E+01
 -2.47510585E+01  0.00000000E+00  1.23755293E+01  1.23755293E+01 -2.47510585E+01
  0.00000000E+00  1.23755293E+01  1.23755293E+01 -2.47510585E+01  0.00000000E+00
  1.23755293E+01  1.23755293E+01 -2.47510585E+01  0.00000000E+00  1.23755293E+01
  1.23755293E+01 -2.47510585E+01  0.00000000E+00  1.23755293E+01  1.23755293E+01
 -2.47510585E+01  0.00000000E+00  1.23755293E+01  1.23755293E+01 -2.47510585E+01
  0.00000000E+00  1.23755293E+01  1.23755293E+01 -2.47510585E+01  0.00000000E+00
  1.23755293E+01  1.23755293E+01 -2.47510585E+01  0.00000000E+00  1.23755293E+01
  1.23755293E+01 -2.47510585E+01  0.00000000E+00  1.23755293E+01  1.23755293E+01
 -2.47510585E+01  0.00000000E+00  1.23755293E+01  1.23755293E+01 -2.47510585E+01
  0.00000000E+00  1.23755293E+01  1.23755293E+01 -2.47510585E+01  0.00000000E+00
  1.23755293E+01  1.23755293E+01 -2.47510585E+01  0.00000000E+00  1.23755293E+01
  1.23755293E+01 -2.47510585E+01  0.00000000E+00  1.23755293E+01  1.23755293E+01
 -2.47510585E+01  0.00000000E+00  1.23755293E+01  1.23755293E+01 -2.47510585E+01
  0.00000000E+00  1.23755293E+01  1.23755293E+01 -2.47510585E+01  0.00000000E+00
  1.23755293E+01  1.23755293E+01 -2.47510585E+01  0.00000000E+00  1.23755293E+01
  1.23755293E+01 -2.47510585E+01  0.00000000E+00  1.23755293E+01  1.23755293E+01
 -2.47510585E+01  0.00000000E+00  1.23755293E+01  1.23755293E+01 -2.47510585E+01
  0.00000000E+00  1.23755293E+01  1.23755293E+01 -2.47510585E+01  0.00000000E+00
  1.23755293E+01  1.23755293E+01 -2.47510585E+01  0.00000000E+00  1.23755293E+01
  1.23755293E+01 -2.47510585E+01  0.00000000E+00  1.23755293E+01  1.23755293E+01
 -2.47510585E+01  0.00000000E+00  1.23755293E+01  1.23755293E+01 -2.47510585E+01
  0.00000000E+00  1.23755293E+01  1.23755293E+01 -2.47510585E+01  0.00000000E+00
  1.23755293E+01  1.23755293E+01 -2.47510585E+01  0.00000000E+00  1.23755293E+01
  1.23755293E+01 -2.47510585E+01  0.00000000E+00  1.23755293E+01  1.23755293E+01
 -2.47510585E+01  0.00000000E+00  1.23755293E+01  1.23755293E+01 -2.47510585E+01
  0.00000000E+00  1.23755293E+01  1.23755293E+01 -2.47510585E+01  0.00000000E+00
  1.23755293E+01  1.23755293E+01 -2.47510585E+01  0.00000000E+00  1.23755293E+01
  1.23755293E+01 -2.47510585E+01  0.00000000E+00  1.23755293E+01  1.23755293E+01
 -2.47510585E+01  0.00000000E+00  1.23755293E+01  1.23755293E+01 -2.47510585E+01
  0.00000000E+00  1.23755293E+01  1.23755293E+01 -2.47510585E+01  0.00000000E+00
  1.23755293E+01  1.23755293E+01 -2.47510585E+01  0.00000000E+00  1.23755293E+01
  1.23755293E+01 -2.47510585E+01  0.00000000E+00  1.23755293E+01  1.23755293E+01
 -2.47510585E+01  0.00000000E+00  1.23755293E+01  1.23755293E+01 -2.47510585E+01
  0.00000000E+00  1.23755293E+01  1.23755293E+01 -2.47510585E+01  0.00000000E+00
  1.23755293E+01  1.23755293E+01 -2.47510585E+01  0.00000000E+00  1.23755293E+01
  1.23755293E+01 -2.47510585E+01  0.00000000E+00  1.23755293E+01  1.23755293E+01
 -2.47510585E+01  0.00000000E+00  1.23755293E+01  1.23755293E+01 -2.47510585E+01
  0.00000000E+00  1.23755293E+01  1.23755293E+01 -2.47510585E+01  0.00000000E+00
  1.23755293E+01  1.23755293E+01 -2.47510585E+01  0.00000000E+00  1.23755293E+01
  1.23755293E+01 -2.47510585E+01  0.00000000E+00  1.23755293E+01  1.23755293E+01
 -2.47510585E+01  0.00000000E+00  1.23755293E+01  1.23755293E+01 -2.47510585E+01
  0.00000000E+00  1.23755293E+01  1.23755293E+01 -2.47510585E+01  0.00000000E+00
  1.23755293E+01  1.23755293E+01 -2.47510585E+01  0.00000000E+00  1.23755293E+01
  1.23755293E+01 -2.47510585E+01  0.00000000E+00  1.23755293E+01  1.23755293E+01
 -2.47510585E+01  0.00000000E+00  1.23755293E+01  1.23755293E+01 -2.47510585E+01
  0.00000000E+00  1.23755293E+01  1.23755293E+01 -2.47510585E+01  0.00000000E+00
  1.23755293E+01  1.23755293E+01 -2.47510585E+01  0.00000000E+00  1.23755293E+01
  1.23755293E+01 -2.47510585E+01  0.00000000E+00  1.23755293E+01  1.23755293E+01
 -2.47510585E+01  0.00000000E+00  1.23755293E+01  1.23755293E+01 -2.47510585E+01
  0.00000000E+00  1.23755293E+01  1.23755293E+01 -2.47510585E+01  0.00000000E+00
  1.23755293E+01  1.23755293E+01 -2.47510585E+01  0.00000000E+00  1.23755293E+01
  1.23755293E+01 -2.47510585E+01  0.00000000E+00  1.23755293E+01  1.23755293E+01
 -2.47510585E+01  0.00000000E+00  1.23755293E+01  1.23755293E+01 -2.47510585E+01
  0.00000000E+00  1.23755293E+01  1.23755293E+01 -2.47510585E+01  0.00000000E+00
  1.23755293E+01  1.23755293E+01 -2.47510585E+01  0.00000000E+00  1.23755293E+01
  1.23755293E+01 -2.47510585E+01  0.00000000E+00  1.23755293E+01  1.23755293E+01
 -2.47510585E+01  0.00000000E+00  1.23755293E+01  1.23755293E+01 -2.47510585E+01
  0.00000000E+00  1.23755293E+01  1.23755293E+01 -2.47510585E+01  0.00000000E+00
  1.23755293E+01  1.23755293E+01 -2.47510585E+01  0.00000000E+00  1.23755293E+01
  1.23755293E+01 -2.47510585E+01  0.00000000E+00  1.23755293E+01  1.23755293E+01
 -2.47510585E+01  0.00000000E+00  1.23755293E+01  1.23755293E+01 -2.47510585E+01
  0.00000000E+00  1.23755293E+01  1.23755293E+01 -2.47510585E+01  0.00000000E+00
  1.23755293E+01  1.23755293E+01 -2.47510585E+01  0.00000000E+00  1.23755293E+01
  1.23755293E+01 -2.47510585E+01  0.00000000E+00  1.23755293E+01  1.23755293E+01
 -2.47510585E+01  0.00000000E+00  1.23755293E+01  1.23755293E+01 -2.47510585E+01
  0.00000000E+00  1.23755293E+01  1.23755293E+01 -2.47510585E+01  0.00000000E+00
  1.23755293E+01  1.23755293E+01 -2.47510585E+01  0.00000000E+00  1.23755293E+01
  1.23755293E+01 -2.47510585E+01  0.00000000E+00  1.23755293E+01  1.23755293E+01
 -2.47510585E+01  0.00000000E+00  1.23755293E+01  1.23755293E+01 -2.47510585E+01
  0.00000000E+00  1.23755293E+01  1.23755293E+01 -2.47510585E+01  0.00000000E+00
  1.23755293E+01  1.23755293E+01 -2.47510585E+01  0.00000000E+00  1.23755293E+01
  1.23755293E+01 -2.47510585E+01  0.00000000E+00  1.23755293E+01  1.23755293E+01
 -2.47510585E+01  0.00000000E+00  1.23755293E+01  1.23755293E+01 -2.47510585E+01
  0.00000000E+00  1.23755293E+01  1.23755293E+01 -2.47510585E+01  0.00000000E+00
  1.23755293E+01  1.23755293E+01 -2.47510585E+01  0.00000000E+00  1.23755293E+01
  1.23755293E+01 -2.47510585E+01  0.00000000E+00  1.23755293E+01  1.23755293E+01
 -2.47510585E+01  0.00000000E+00  1.23755293E+01  1.23755293E+01 -2.47510585E+01
  0.00000000E+00  1.23755293E+01  1.23755293E+01 -2.47510585E+01  0.00000000E+00
  1.23755293E+01  1.23755293E+01 -2.47510585E+01  0.00000000E+00  1.23755293E+01
  1.23755293E+01 -2.47510585E+01  0.00000000E+00  1.23755293E+01  1.23755293E+01
 -2.47510585E+01  0.00000000E+00  1.23755293E+01  1.23755293E+01 -2.47510585E+01
  0.00000000E+00  1.23755293E+01  1.23755293E+01 -2.47510585E+01  0.00000000E+00
  1.23755293E+01  1.23755293E+01 -2.47510585E+01  0.00000000E+00  1.23755293E+01
  1.23755293E+01 -2.47510585E+01  0.00000000E+00  1.23755293E+01  1.23755293E+01
 -2.47510585E+01  0.00000000E+00  1.23755293E+01  1.23755293E+01 -2.47510585E+01
  0.00000000E+00  1.23755293E+01  1.23755293E+01 -2.47510585E+01  0.00000000E+00
  1.23755293E+01  1.23755293E+01 -2.47510585E+01  0.00000000E+00  1.23755293E+01
  1.23755293E+01 -2.47510585E+01  0.00000000E+00  1.23755293E+01  1.23755293E+01
 -2.47510585E+01  0.00000000E+00  1.23755293E+01  1.23755293E+01 -2.47510585E+01
  0.00000000E+00  1.23755293E+01  1.23755293E+01 -2.47510585E+01  0.00000000E+00
  1.23755293E+01  1.23755293E+01 -2.47510585E+01  0.00000000E+00  1.23755293E+01
  1.23755293E+01 -2.47510585E+01  0.00000000E+00  1.23755293E+01  1.23755293E+01
 -2.47510585E+01  0.00000000E+00  1.23755293E+01  1.23755293E+01 -2.47510585E+01
  0.00000000E+00  1.23755293E+01  1.23755293E+01 -2.47510585E+01  0.00000000E+00
  1.23755293E+01  1.23755293E+01 -2.47510585E+01  0.00000000E+00  1.23755293E+01
  1.23755293E+01 -2.47510585E+01  0.00000000E+00  1.23755293E+01  1.23755293E+01
 -2.47510585E+01  0.00000000E+00  1.23755293E+01  1.23755293E+01 -2.47510585E+01
  0.00000000E+00  1.23755293E+01  1.23755293E+01 -2.47510585E+01  0.00000000E+00
  1.23755293E+01  1.23755293E+01 -2.47510585E+01  0.00000000E+00  1.23755293E+01
  1.23755293E+01 -2.47510585E+01  0.00000000E+00  1.23755293E+01  1.23755293E+01
 -2.47510585E+01  0.00000000E+00  1.23755293E+01  1.23755293E+01 -2.47510585E+01
  0.00000000E+00  1.23755293E+01  1.23755293E+01 -2.47510585E+01  0.00000000E+00
  1.23755293E+01  1.23755293E+01 -2.47510585E+01  0.00000000E+00  1.23755293E+01
  1.23755293E+01 -2.47510585E+01  0.00000000E+00  1.23755293E+01  1.23755293E+01
 -2.47510585E+01  0.00000000E+00  1.23755293E+01  1.23755293E+01 -2.47510585E+01
  0.00000000E+00  1.23755293E+01  1.23755293E+01 -2.47510585E+01  0.00000000E+00
  1.23755293E+01  1.23755293E+01 -2.47510585E+01  0.00000000E+00  1.23755293E+01
  1.23755293E+01 -2.47510585E+01  0.00000000E+00  1.23755293E+01  1.23755293E+01
 -2.47510585E+01  0.00000000E+00  1.23755293E+01  1.23755293E+01 -2.47510585E+01
  0.00000000E+00  1.23755293E+01  1.23755293E+01 -2.47510585E+01  0.00000000E+00
  1.23755293E+01  1.23755293E+01 -2.47510585E+01  0.00000000E+00  1.23755293E+01
  1.23755293E+01 -2.47510585E+01  0.00000000E+00  1.23755293E+01  1.23755293E+01
 -2.47510585E+01  0.00000000E+00  1.23755293E+01  1.23755293E+01 -2.47510585E+01
  0.00000000E+00  1.23755293E+01  1.23755293E+01 -2.47510585E+01  0.00000000E+00
  1.23755293E+01  1.23755293E+01 -2.47510585E+01  0.00000000E+00  1.23755293E+01
  1.23755293E+01 -2.47510585E+01  0.00000000E+00  1.23755293E+01  1.23755293E+01
 -2.47510585E+01  0.00000000E+00  1.23755293E+01  1.23755293E+01 -2.47510585E+01
  0.00000000E+00  1.23755293E+01  1.23755293E+01 -2.47510585E+01  0.00000000E+00
  1.23755293E+01  1.23755293E+01 -2.47510585E+01  0.00000000E+00  1.23755293E+01
  1.23755293E+01 -2.47510585E+01  0.00000000E+00  1.23755293E+01  1.23755293E+01
 -2.47510585E+01  0.00000000E+00  1.23755293E+01  1.23755293E+01 -2.47510585E+01
  0.00000000E+00  1.23755293E+01  1.23755293E+01 -2.47510585E+01  0.00000000E+00
  1.23755293E+01  1.23755293E+01 -2.47510585E+01  0.00000000E+00  1.23755293E+01
  1.23755293E+01 -2.47510585E+01  0.00000000E+00  1.23755293E+01  1.23755293E+01
 -2.47510585E+01  0.00000000E+00  1.23755293E+01  1.23755293E+01 -2.47510585E+01
  0.00000000E+00  1.23755293E+01  1.23755293E+01 -2.47510585E+01  0.00000000E+00
  1.23755293E+01  1.23755293E+01 -2.47510585E+01  0.00000000E+00  1.23755293E+01
  1.23755293E+01 -2.47510585E+01  0.00000000E+00  1.23755293E+01  1.23755293E+01
 -2.47510585E+01  0.00000000E+00  1.23755293E+01  1.23755293E+01 -2.47510585E+01
  0.00000000E+00  1.23755293E+01  1.23755293E+01 -2.47510585E+01  0.00000000E+00
  1.23755293E+01  1.23755293E+01 -2.47510585E+01  0.00000000E+00  1.23755293E+01
  1.23755293E+01 -2.47510585E+01  0.00000000E+00  1.23755293E+01  1.23755293E+01
 -2.47510585E+01  0.00000000E+00  1.23755293E+01  1.23755293E+01 -2.47510585E+01
  0.00000000E+00  1.23755293E+01  1.23755293E+01 -2.47510585E+01  0.00000000E+00
  1.23755293E+01  1.23755293E+01 -2.47510585E+01  0.00000000E+00  1.23755293E+01
  1.23755293E+01 -2.47510585E+01  0.00000000E+00  1.23755293E+01  1.23755293E+01
 -2.47510585E+01  0.00000000E+00  1.23755293E+01  1.23755293E+01 -2.47510585E+01
  0.00000000E+00  1.23755293E+01  1.23755293E+01 -2.47510585E+01  0.00000000E+00
  1.23755293E+01  1.23755293E+01 -2.47510585E+01  0.00000000E+00  1.23755293E+01
  1.23755293E+01 -2.47510585E+01  0.00000000E+00  1.23755293E+01  1.23755293E+01
 -2.47510585E+01  0.00000000E+00  1.23755293E+01  1.23755293E+01 -2.47510585E+01
  0.00000000E+00  1.23755293E+01  1.23755293E+01 -2.47510585E+01  0.00000000E+00
  1.23755293E+01  1.23755293E+01 -2.47510585E+01  0.00000000E+00  1.23755293E+01
  1.23755293E+01 -2.47510585E+01  0.00000000E+00  1.23755293E+01  1.23755293E+01
 -2.47510585E+01  0.00000000E+00  1.23755293E+01  1.23755293E+01 -2.47510585E+01
  0.00000000E+00  1.23755293E+01  1.23755293E+01 -2.47510585E+01  0.00000000E+00
  1.23755293E+01  1.23755293E+01 -2.47510585E+01  0.00000000E+00  1.23755293E+01
  1.23755293E+01 -2.47510585E+01  0.00000000E+00  1.23755293E+01  1.23755293E+01
 -2.47510585E+01  0.00000000E+00  1.23755293E+01  1.23755293E+01 -2.47510585E+01
  0.00000000E+00  1.23755293E+01  1.23755293E+01 -2.47510585E+01  0.00000000E+00
  1.23755293E+01  1.23755293E+01 -2.47510585E+01  0.00000000E+00  1.23755293E+01
  1.23755293E+01 -2.47510585E+01  0.00000000E+00  1.23755293E+01  1.23755293E+01
 -2.47510585E+01  0.00000000E+00  1.23755293E+01  1.23755293E+01 -2.47510585E+01
  0.00000000E+00  1.23755293E+01  1.23755293E+01 -2.47510585E+01  0.00000000E+00
  1.23755293E+01  1.23755293E+01 -2.47510585E+01  0.00000000E+00  1.23755293E+01
  1.23755293E+01 -2.47510585E+01  0.00000000E+00  1.23755293E+01  1.23755293E+01
 -2.47510585E+01  0.00000000E+00  1.23755293E+01  1.23755293E+01 -2.47510585E+01
  0.00000000E+00  1.23755293E+01  1.23755293E+01 -2.47510585E+01  0.00000000E+00
  1.23755293E+01  1.23755293E+01 -2.47510585E+01  0.00000000E+00  1.23755293E+01
  1.23755293E+01 -2.47510585E+01  0.00000000E+00  1.23755293E+01  1.23755293E+01
 -2.47510585E+01  0.00000000E+00  1.23755293E+01  1.23755293E+01 -2.47510585E+01
  0.00000000E+00  1.23755293E+01  1.23755293E+01 -2.47510585E+01  0.00000000E+00
  1.23755293E+01  1.23755293E+01 -2.47510585E+01  0.00000000E+00  1.23755293E+01
  1.23755293E+01 -2.47510585E+01  0.00000000E+00  1.23755293E+01  1.23755293E+01
 -2.47510585E+01  0.00000000E+00  1.23755293E+01  1.23755293E+01 -2.47510585E+01
  0.00000000E+00  1.23755293E+01  1.23755293E+01 -2.47510585E+01  0.00000000E+00
  1.23755293E+01  1.23755293E+01 -2.47510585E+01  0.00000000E+00  1.23755293E+01
  1.23755293E+01 -2.47510585E+01  0.00000000E+00  1.23755293E+01  1.23755293E+01
 -2.47510585E+01  0.00000000E+00  1.23755293E+01  1.23755293E+01 -2.47510585E+01
  0.00000000E+00  1.23755293E+01  1.23755293E+01 -2.47510585E+01  0.00000000E+00
  1.23755293E+01  1.23755293E+01 -2.47510585E+01  0.00000000E+00  1.23755293E+01
  1.23755293E+01 -2.47510585E+01  0.00000000E+00  1.23755293E+01  1.23755293E+01
 -2.47510585E+01  0.00000000E+00  1.23755293E+01  1.23755293E+01 -2.47510585E+01
  0.00000000E+00  1.23755293E+01  1.23755293E+01 -2.47510585E+01  0.00000000E+00
  1.23755293E+01  1.23755293E+01 -2.47510585E+01  0.00000000E+00  1.23755293E+01
  1.23755293E+01 -2.47510585E+01  0.00000000E+00  1.23755293E+01  1.23755293E+01
 -2.47510585E+01  0.00000000E+00  1.23755293E+01  1.23755293E+01 -2.47510585E+01
  0.00000000E+00  1.23755293E+01  1.23755293E+01 -2.47510585E+01  0.00000000E+00
  1.23755293E+01  1.23755293E+01 -2.47510585E+01  0.00000000E+00  1.23755293E+01
  1.23755293E+01 -2.47510585E+01  0.00000000E+00  1.23755293E+01  1.23755293E+01
 -2.47510585E+01  0.00000000E+00  1.23755293E+01  1.23755293E+01 -2.47510585E+01
  0.00000000E+00  1.23755293E+01  1.23755293E+01 -2.47510585E+01  0.00000000E+00
  1.23755293E+01  1.23755293E+01 -2.47510585E+01  0.00000000E+00  1.23755293E+01
  1.23755293E+01 -2.47510585E+01  0.00000000E+00  1.23755293E+01  1.23755293E+01
 -2.47510585E+01  0.00000000E+00  1.23755293E+01  1.23755293E+01 -2.47510585E+01
  0.00000000E+00  1.23755293E+01  1.23755293E+01 -2.47510585E+01  0.00000000E+00
  1.23755293E+01  1.23755293E+01 -2.47510585E+01  0.00000000E+00  1.23755293E+01
  1.23755293E+01 -2.47510585E+01  0.00000000E+00  1.23755293E+01  1.23755293E+01
 -2.47510585E+01  0.00000000E+00  1.23755293E+01  1.23755293E+01 -2.47510585E+01
  0.00000000E+00  1.23755293E+01  1.23755293E+01 -2.47510585E+01  0.00000000E+00
  1.23755293E+01  1.23755293E+01 -2.47510585E+01  0.00000000E+00  1.23755293E+01
  1.23755293E+01 -2.47510585E+01  0.00000000E+00  1.23755293E+01  1.23755293E+01
 -2.47510585E+01  0.00000000E+00  1.23755293E+01  1.23755293E+01 -2.47510585E+01
  0.00000000E+00  1.23755293E+01  1.23755293E+01 -2.47510585E+01  0.00000000E+00
  1.23755293E+01  1.23755293E+01 -2.47510585E+01  0.00000000E+00  1.23755293E+01
  1.23755293E+01 -2.47510585E+01  0.00000000E+00  1.23755293E+01  1.23755293E+01
 -2.47510585E+01  0.00000000E+00  1.23755293E+01  1.23755293E+01 -2.47510585E+01
  0.00000000E+00  1.23755293E+01  1.23755293E+01 -2.47510585E+01  0.00000000E+00
  1.23755293E+01  1.23755293E+01 -2.47510585E+01  0.00000000E+00  1.23755293E+01
  1.23755293E+01 -2.47510585E+01  0.00000000E+00  1.23755293E+01  1.23755293E+01
 -2.47510585E+01  0.00000000E+00  1.23755293E+01  1.23755293E+01 -2.47510585E+01
  0.00000000E+00  1.23755293E+01  1.23755293E+01 -2.47510585E+01  0.00000000E+00
  1.23755293E+01  1.23755293E+01 -2.47510585E+01  0.00000000E+00  1.23755293E+01
  1.23755293E+01 -2.47510585E+01  0.00000000E+00  1.23755293E+01  1.23755293E+01
 -2.47510585E+01  0.00000000E+00  1.23755293E+01  1.23755293E+01 -2.47510585E+01
  0.00000000E+00  1.23755293E+01  1.23755293E+01 -2.47510585E+01  0.00000000E+00
  1.23755293E+01  1.23755293E+01 -2.47510585E+01  0.00000000E+00  1.23755293E+01
  1.23755293E+01 -2.47510585E+01  0.00000000E+00  1.23755293E+01  1.23755293E+01
 -2.47510585E+01  0.00000000E+00  1.23755293E+01  1.23755293E+01 -2.47510585E+01
  0.00000000E+00  1.23755293E+01  1.23755293E+01 -2.47510585E+01  0.00000000E+00
  1.23755293E+01  1.23755293E+01 -2.47510585E+01  0.00000000E+00  1.23755293E+01
  1.23755293E+01 -2.47510585E+01  0.00000000E+00  1.23755293E+01  1.23755293E+01
 -2.47510585E+01  0.00000000E+00  1.23755293E+01  1.23755293E+01 -2.47510585E+01
  0.00000000E+00  1.23755293E+01  1.23755293E+01 -2.47510585E+01  0.00000000E+00
  1.23755293E+01  1.23755293E+01 -2.47510585E+01  0.00000000E+00  1.23755293E+01
  1.23755293E+01 -2.47510585E+01  0.00000000E+00  1.23755293E+01  1.23755293E+01
 -2.47510585E+01  0.00000000E+00  1.23755293E+01  1.23755293E+01 -2.47510585E+01
  0.00000000E+00  1.23755293E+01  1.23755293E+01 -2.47510585E+01  0.00000000E+00
  1.23755293E+01  1.23755293E+01 -2.47510585E+01  0.00000000E+00  1.23755293E+01
  1.23755293E+01 -2.47510585E+01  0.00000000E+00  1.23755293E+01  1.23755293E+01
 -2.47510585E+01  0.00000000E+00  1.23755293E+01  1.23755293E+01 -2.47510585E+01
  0.00000000E+00  1.23755293E+01  1.23755293E+01 -2.47510585E+01  0.00000000E+00
  1.23755293E+01  1.23755293E+01 -2.47510585E+01  0.00000000E+00  1.23755293E+01
  1.23755293E+01 -2.47510585E+01  0.00000000E+00  1.23755293E+01  1.23755293E+01
 -2.47510585E+01  0.00000000E+00  1.23755293E+01  1.23755293E+01 -2.47510585E+01
  0.00000000E+00  1.23755293E+01  1.23755293E+01 -2.47510585E+01  0.00000000E+00
  1.23755293E+01  1.23755293E+01 -2.47510585E+01  0.00000000E+00  1.23755293E+01
  1.23755293E+01 -2.47510585E+01  0.00000000E+00  1.23755293E+01  1.23755293E+01
 -2.47510585E+01  0.00000000E+00  1.23755293E+01  1.23755293E+01 -2.47510585E+01
  0.00000000E+00  1.23755293E+01  1.23755293E+01 -2.47510585E+01  0.00000000E+00
  1.23755293E+01  1.23755293E+01 -2.47510585E+01  0.00000000E+00  1.23755293E+01
  1.23755293E+01 -2.47510585E+01  0.00000000E+00  1.23755293E+01  1.23755293E+01
 -2.47510585E+01  0.00000000E+00  1.23755293E+01  1.23755293E+01 -2.47510585E+01
  0.00000000E+00  1.23755293E+01  1.23755293E+01 -2.47510585E+01  0.00000000E+00
  1.23755293E+01  1.23755293E+01 -2.47510585E+01  0.00000000E+00  1.23755293E+01
  1.23755293E+01 -2.47510585E+01  0.00000000E+00  1.23755293E+01  1.23755293E+01
 -2.47510585E+01  0.00000000E+00  1.23755293E+01  1.23755293E+01 -2.47510585E+01
  0.00000000E+00  1.23755293E+01  1.23755293E+01 -2.47510585E+01  0.00000000E+00
  1.23755293E+01  1.23755293E+01 -2.47510585E+01  0.00000000E+00  1.23755293E+01
  1.23755293E+01 -2.47510585E+01  0.00000000E+00  1.23755293E+01  1.23755293E+01
 -2.47510585E+01  0.00000000E+00  1.23755293E+01  1.23755293E+01 -2.47510585E+01
  0.00000000E+00  1.23755293E+01  1.23755293E+01 -2.47510585E+01  0.00000000E+00
  1.23755293E+01  1.23755293E+01 -2.47510585E+01  0.00000000E+00  1.23755293E+01
  1.23755293E+01 -2.47510585E+01  0.00000000E+00  1.23755293E+01  1.23755293E+01
 -2.47510585E+01  0.00000000E+00  1.23755293E+01  1.23755293E+01 -2.47510585E+01
  0.00000000E+00  1.23755293E+01  1.23755293E+01 -2.47510585E+01  0.00000000E+00
  1.23755293E+01  1.23755293E+01 -2.47510585E+01  0.00000000E+00  1.23755293E+01
  1.23755293E+01 -2.47510585E+01  0.00000000E+00  1.23755293E+01  1.23755293E+01
 -2.47510585E+01  0.00000000E+00  1.23755293E+01  1.23755293E+01 -2.47510585E+01
  0.00000000E+00  1.23755293E+01  1.23755293E+01 -2.47510585E+01  0.00000000E+00
  1.23755293E+01  1.23755293E+01 -2.47510585E+01  0.00000000E+00  1.23755293E+01
  1.23755293E+01 -2.47510585E+01  0.00000000E+00  1.23755293E+01  1.23755293E+01
 -2.47510585E+01  0.00000000E+00  1.23755293E+01  1.23755293E+01 -2.47510585E+01
  0.00000000E+00  1.23755293E+01  1.23755293E+01 -2.47510585E+01  0.00000000E+00
  1.23755293E+01  1.23755293E+01 -2.47510585E+01  0.00000000E+00  1.23755293E+01
  1.23755293E+01 -2.47510585E+01  0.00000000E+00  1.23755293E+01  1.23755293E+01
 -2.47510585E+01  0.00000000E+00  1.23755293E+01  1.23755293E+01 -2.47510585E+01
  0.00000000E+00  1.23755293E+01  1.23755293E+01 -2.47510585E+01  0.00000000E+00
  1.23755293E+01  1.23755293E+01 -2.47510585E+01  0.00000000E+00  1.23755293E+01
  1.23755293E+01 -2.47510585E+01  0.00000000E+00  1.23755293E+01  1.23755293E+01
 -2.47510585E+01  0.00000000E+00  1.23755293E+01  1.23755293E+01 -2.47510585E+01
  0.00000000E+00  1.23755293E+01  1.23755293E+01 -2.47510585E+01  0.00000000E+00
  1.23755293E+01  1.23755293E+01 -2.47510585E+01  0.00000000E+00  1.23755293E+01
  1.23755293E+01 -2.47510585E+01  0.00000000E+00  1.23755293E+01  1.23755293E+01
 -2.47510585E+01  0.00000000E+00  1.23755293E+01  1.23755293E+01 -2.47510585E+01
  0.00000000E+00  1.23755293E+01  1.23755293E+01 -2.47510585E+01  0.00000000E+00
  1.23755293E+01  1.23755293E+01 -2.47510585E+01  0.00000000E+00  1.23755293E+01
  1.23755293E+01 -2.47510585E+01  0.00000000E+00  1.23755293E+01  1.23755293E+01
 -2.47510585E+01  0.00000000E+00  1.23755293E+01  1.23755293E+01 -2.47510585E+01
  0.00000000E+00  1.23755293E+01  1.23755293E+01 -2.47510585E+01  0.00000000E+00
  1.23755293E+01  1.23755293E+01 -2.47510585E+01  0.00000000E+00  1.23755293E+01
  1.23755293E+01 -2.47510585E+01  0.00000000E+00  1.23755293E+01  1.23755293E+01
 -2.47510585E+01  0.00000000E+00  1.23755293E+01  1.23755293E+01 -2.47510585E+01
  0.00000000E+00  1.23755293E+01  1.23755293E+01 -2.47510585E+01  0.00000000E+00
  1.23755293E+01  1.23755293E+01 -2.47510585E+01  0.00000000E+00  1.23755293E+01
  1.23755293E+01 -2.47510585E+01  0.00000000E+00  1.23755293E+01  1.23755293E+01
 -2.47510585E+01  0.00000000E+00  1.23755293E+01  1.23755293E+01 -2.47510585E+01
  0.00000000E+00  1.23755293E+01  1.23755293E+01 -2.47510585E+01  0.00000000E+00
  1.23755293E+01  1.23755293E+01 -2.47510585E+01  0.00000000E+00  1.23755293E+01
  1.23755293E+01 -2.47510585E+01  0.00000000E+00  1.23755293E+01  1.23755293E+01
 -2.47510585E+01  0.00000000E+00  1.23755293E+01  1.23755293E+01 -2.47510585E+01
  0.00000000E+00  1.23755293E+01  1.23755293E+01 -2.47510585E+01  0.00000000E+00
  1.23755293E+01  1.23755293E+01 -2.47510585E+01  0.00000000E+00  1.23755293E+01
  1.23755293E+01 -2.47510585E+01  0.00000000E+00  1.23755293E+01  1.23755293E+01
 -2.47510585E+01  0.00000000E+00  1.23755293E+01  1.23755293E+01 -2.47510585E+01
  0.00000000E+00  1.23755293E+01  1.23755293E+01 -2.47510585E+01  0.00000000E+00
  1.23755293E+01  1.23755293E+01 -2.47510585E+01  0.00000000E+00  1.23755293E+01
  1.23755293E+01 -2.47510585E+01  0.00000000E+00  1.23755293E+01  1.23755293E+01
 -2.47510585E+01  0.00000000E+00  1.23755293E+01  1.23755293E+01 -2.47510585E+01
  0.00000000E+00  1.23755293E+01  1.23755293E+01 -2.47510585E+01  0.00000000E+00
  1.23755293E+01  1.23755293E+01 -2.47510585E+01  0.00000000E+00  1.23755293E+01
  1.23755293E+01 -2.47510585E+01  0.00000000E+00  1.23755293E+01  1.23755293E+01
 -2.47510585E+01  0.00000000E+00  1.23755293E+01  1.23755293E+01 -2.47510585E+01
  0.00000000E+00  1.23755293E+01  1.23755293E+01 -2.47510585E+01  0.00000000E+00
  1.23755293E+01  1.23755293E+01 -2.47510585E+01  0.00000000E+00  1.23755293E+01
  1.23755293E+01 -2.47510585E+01  0.00000000E+00  1.23755293E+01  1.23755293E+01
 -2.47510585E+01  0.00000000E+00  1.23755293E+01  1.23755293E+01 -2.47510585E+01
  0.00000000E+00  1.23755293E+01  1.23755293E+01 -2.47510585E+01  0.00000000E+00
  1.23755293E+01  1.23755293E+01 -2.47510585E+01  0.00000000E+00  1.23755293E+01
  1.23755293E+01 -2.47510585E+01  0.00000000E+00  1.23755293E+01  1.23755293E+01
 -2.47510585E+01  0.00000000E+00  1.23755293E+01  1.23755293E+01 -2.47510585E+01
  0.00000000E+00  1.23755293E+01  1.23755293E+01 -2.47510585E+01  0.00000000E+00
  1.23755293E+01  1.23755293E+01 -2.47510585E+01  0.00000000E+00  1.23755293E+01
  1.23755293E+01 -2.47510585E+01  0.00000000E+00  1.23755293E+01  1.23755293E+01
 -2.47510585E+01  0.00000000E+00  1.23755293E+01  1.23755293E+01 -2.47510585E+01
  0.00000000E+00  1.23755293E+01  1.23755293E+01 -2.47510585E+01  0.00000000E+00
  1.23755293E+01  1.23755293E+01 -2.47510585E+01  0.00000000E+00  1.23755293E+01
  1.23755293E+01 -2.47510585E+01  0.00000000E+00  1.23755293E+01  1.23755293E+01
 -2.47510585E+01  0.00000000E+00  1.23755293E+01  1.23755293E+01 -2.47510585E+01
  0.00000000E+00  1.23755293E+01  1.23755293E+01 -2.47510585E+01  0.00000000E+00
  1.23755293E+01  1.23755293E+01 -2.47510585E+01  0.00000000E+00  1.23755293E+01
  1.23755293E+01 -2.47510585E+01  0.00000000E+00  1.23755293E+01  1.23755293E+01
 -2.47510585E+01  0.00000000E+00  1.23755293E+01  1.23755293E+01 -2.47510585E+01
  0.00000000E+00  1.23755293E+01  1.23755293E+01 -2.47510585E+01  0.00000000E+00
  1.23755293E+01  1.23755293E+01 -2.47510585E+01  0.00000000E+00  1.23755293E+01
  1.23755293E+01 -2.47510585E+01  0.00000000E+00  1.23755293E+01  1.23755293E+01
 -2.47510585E+01  0.00000000E+00  1.23755293E+01  1.23755293E+01 -2.47510585E+01
  0.00000000E+00  1.23755293E+01  1.23755293E+01 -2.47510585E+01  0.00000000E+00
  1.23755293E+01  1.23755293E+01 -2.47510585E+01  0.00000000E+00  1.23755293E+01
  1.23755293E+01 -2.47510585E+01  0.00000000E+00  1.23755293E+01  1.23755293E+01
 -2.47510585E+01  0.00000000E+00  1.23755293E+01  1.23755293E+01 -2.47510585E+01
  0.00000000E+00  1.23755293E+01  1.23755293E+01 -2.47510585E+01  0.00000000E+00
  1.23755293E+01  1.23755293E+01 -2.47510585E+01  0.00000000E+00  1.23755293E+01
  1.23755293E+01 -2.47510585E+01  0.00000000E+00  1.23755293E+01  1.23755293E+01
 -2.47510585E+01  0.00000000E+00  1.23755293E+01  1.23755293E+01 -2.47510585E+01
  0.00000000E+00  1.23755293E+01  1.23755293E+01 -2.47510585E+01  0.00000000E+00
  1.23755293E+01  1.23755293E+01 -2.47510585E+01  0.00000000E+00  1.23755293E+01
  1.23755293E+01 -2.47510585E+01  0.00000000E+00  1.23755293E+01  1.23755293E+01
 -2.47510585E+01  0.00000000E+00  1.23755293E+01  1.23755293E+01 -2.47510585E+01
  0.00000000E+00  1.23755293E+01  1.23755293E+01 -2.47510585E+01  0.00000000E+00
  1.23755293E+01  1.23755293E+01 -2.47510585E+01  0.00000000E+00  1.23755293E+01
  1.23755293E+01 -2.47510585E+01  0.00000000E+00  1.23755293E+01  1.23755293E+01
 -2.47510585E+01  0.00000000E+00  1.23755293E+01  1.23755293E+01 -2.47510585E+01
  0.00000000E+00  1.23755293E+01  1.23755293E+01 -2.47510585E+01  0.00000000E+00
  1.23755293E+01  1.23755293E+01 -2.47510585E+01  0.00000000E+00  1.23755293E+01
  1.23755293E+01 -2.47510585E+01  0.00000000E+00  1.23755293E+01  1.23755293E+01
 -2.47510585E+01  0.00000000E+00  1.23755293E+01  1.23755293E+01 -2.47510585E+01
  0.00000000E+00  1.23755293E+01  1.23755293E+01 -2.47510585E+01  0.00000000E+00
  1.23755293E+01  1.23755293E+01 -2.47510585E+01  0.00000000E+00  1.23755293E+01
  1.23755293E+01 -2.47510585E+01  0.00000000E+00  1.23755293E+01  1.23755293E+01
 -2.47510585E+01  0.00000000E+00  1.23755293E+01  1.23755293E+01 -2.47510585E+01
  0.00000000E+00  1.23755293E+01  1.23755293E+01 -2.47510585E+01  0.00000000E+00
  1.23755293E+01  1.23755293E+01 -2.47510585E+01  0.00000000E+00  1.23755293E+01
  1.23755293E+01 -2.47510585E+01  0.00000000E+00  1.23755293E+01  1.23755293E+01
 -2.47510585E+01  0.00000000E+00  1.23755293E+01  1.23755293E+01 -2.47510585E+01
  0.00000000E+00  1.23755293E+01  1.23755293E+01 -2.47510585E+01  0.00000000E+00
  1.23755293E+01  1.23755293E+01 -2.47510585E+01  0.00000000E+00  1.23755293E+01
  1.23755293E+01 -2.47510585E+01  0.00000000E+00  1.23755293E+01  1.23755293E+01
 -2.47510585E+01  0.00000000E+00  1.23755293E+01  1.23755293E+01 -2.47510585E+01
  0.00000000E+00  1.23755293E+01  1.23755293E+01 -2.47510585E+01  0.00000000E+00
  1.23755293E+01  1.23755293E+01 -2.47510585E+01  0.00000000E+00  1.23755293E+01
  1.23755293E+01 -2.47510585E+01  0.00000000E+00  1.23755293E+01  1.23755293E+01
 -2.47510585E+01  0.00000000E+00  1.23755293E+01  1.23755293E+01 -2.47510585E+01
  0.00000000E+00  1.23755293E+01  1.23755293E+01 -2.47510585E+01  0.00000000E+00
  1.23755293E+01  1.23755293E+01 -2.47510585E+01  0.00000000E+00  1.23755293E+01
  1.23755293E+01 -2.47510585E+01  0.00000000E+00  1.23755293E+01  1.23755293E+01
 -2.47510585E+01  0.00000000E+00  1.23755293E+01  1.23755293E+01 -2.47510585E+01
  0.00000000E+00  1.23755293E+01  1.23755293E+01 -2.47510585E+01  0.00000000E+00
  1.23755293E+01  1.23755293E+01 -2.47510585E+01  0.00000000E+00  1.23755293E+01
  1.23755293E+01 -2.47510585E+01  0.00000000E+00  1.23755293E+01  1.23755293E+01
 -2.47510585E+01  0.00000000E+00  1.23755293E+01  1.23755293E+01 -2.47510585E+01
  0.00000000E+00  1.23755293E+01  1.23755293E+01 -2.47510585E+01  0.00000000E+00
  1.23755293E+01  1.23755293E+01 -2.47510585E+01  0.00000000E+00  1.23755293E+01
  1.23755293E+01 -2.47510585E+01  0.00000000E+00  1.23755293E+01  1.23755293E+01
 -2.47510585E+01  0.00000000E+00  1.23755293E+01  1.23755293E+01 -2.47510585E+01
  0.00000000E+00  1.23755293E+01  1.23755293E+01 -2.47510585E+01  0.00000000E+00
  1.23755293E+01  1.23755293E+01 -2.47510585E+01  0.00000000E+00  1.23755293E+01
  1.23755293E+01 -2.47510585E+01  0.00000000E+00  1.23755293E+01  1.23755293E+01
 -2.47510585E+01  0.00000000E+00  1.23755293E+01  1.23755293E+01 -2.47510585E+01
  0.00000000E+00  1.23755293E+01  1.23755293E+01 -2.47510585E+01  0.00000000E+00
  1.23755293E+01  1.23755293E+01 -2.47510585E+01  0.00000000E+00  1.23755293E+01
  1.23755293E+01 -2.47510585E+01  0.00000000E+00  1.23755293E+01  1.23755293E+01
 -2.47510585E+01  0.00000000E+00  1.23755293E+01  1.23755293E+01 -2.47510585E+01
  0.00000000E+00  1.23755293E+01  1.23755293E+01 -2.47510585E+01  0.00000000E+00
  1.23755293E+01  1.23755293E+01 -2.47510585E+01  0.00000000E+00  1.23755293E+01
  1.23755293E+01 -2.47510585E+01  0.00000000E+00  1.23755293E+01  1.23755293E+01
 -2.47510585E+01  0.00000000E+00  1.23755293E+01  1.23755293E+01 -2.47510585E+01
  0.00000000E+00  1.23755293E+01  1.23755293E+01 -2.47510585E+01  0.00000000E+00
  1.23755293E+01  1.23755293E+01 -2.47510585E+01  0.00000000E+00  1.23755293E+01
  1.23755293E+01 -2.47510585E+01  0.00000000E+00  1.23755293E+01  1.23755293E+01
 -2.47510585E+01  0.00000000E+00  1.23755293E+01  1.23755293E+01 -2.47510585E+01
  0.00000000E+00  1.23755293E+01  1.23755293E+01 -2.47510585E+01  0.00000000E+00
  1.23755293E+01  1.23755293E+01 -2.47510585E+01  0.00000000E+00  1.23755293E+01
  1.23755293E+01 -2.47510585E+01  0.00000000E+00  1.23755293E+01  1.23755293E+01
 -2.47510585E+01  0.00000000E+00  1.23755293E+01  1.23755293E+01 -2.47510585E+01
  0.00000000E+00  1.23755293E+01  1.23755293E+01 -2.47510585E+01  0.00000000E+00
  1.23755293E+01  1.23755293E+01 -2.47510585E+01  0.00000000E+00  1.23755293E+01
  1.23755293E+01 -2.47510585E+01  0.00000000E+00  1.23755293E+01  1.23755293E+01
 -2.47510585E+01  0.00000000E+00  1.23755293E+01  1.23755293E+01 -2.47510585E+01
  0.00000000E+00  1.23755293E+01  1.23755293E+01 -2.47510585E+01  0.00000000E+00
  1.23755293E+01  1.23755293E+01 -2.47510585E+01  0.00000000E+00  1.23755293E+01
  1.23755293E+01 -2.47510585E+01  0.00000000E+00  1.23755293E+01  1.23755293E+01
 -2.47510585E+01  0.00000000E+00  1.23755293E+01  1.23755293E+01 -2.47510585E+01
  0.00000000E+00  1.23755293E+01  1.23755293E+01 -2.47510585E+01  0.00000000E+00
  1.23755293E+01  1.23755293E+01 -2.47510585E+01  0.00000000E+00  1.23755293E+01
  1.23755293E+01 -2.47510585E+01  0.00000000E+00  1.23755293E+01  1.23755293E+01
 -2.47510585E+01  0.00000000E+00  1.23755293E+01  1.23755293E+01 -2.47510585E+01
  0.00000000E+00  1.23755293E+01  1.23755293E+01 -2.47510585E+01  0.00000000E+00
  1.23755293E+01  1.23755293E+01 -2.47510585E+01  0.00000000E+00  1.23755293E+01
  1.23755293E+01 -2.47510585E+01  0.00000000E+00  1.23755293E+01  1.23755293E+01
 -2.47510585E+01  0.00000000E+00  1.23755293E+01  1.23755293E+01 -2.47510585E+01
  0.00000000E+00  1.23755293E+01  1.23755293E+01 -2.47510585E+01  0.00000000E+00
  1.23755293E+01  1.23755293E+01 -2.47510585E+01  0.00000000E+00  1.23755293E+01
  1.23755293E+01 -2.47510585E+01  0.00000000E+00  1.23755293E+01  1.23755293E+01
 -2.47510585E+01  0.00000000E+00  1.23755293E+01  1.23755293E+01 -2.47510585E+01
  0.00000000E+00  1.23755293E+01  1.23755293E+01 -2.47510585E+01  0.00000000E+00
  1.23755293E+01  1.23755293E+01 -2.47510585E+01  0.00000000E+00  1.23755293E+01
  1.23755293E+01 -2.47510585E+01  0.00000000E+00  1.23755293E+01  1.23755293E+01
 -2.47510585E+01  0.00000000E+00  1.23755293E+01  1.23755293E+01 -2.47510585E+01
  0.00000000E+00  1.23755293E+01  1.23755293E+01 -2.47510585E+01  0.00000000E+00
  1.23755293E+01  1.23755293E+01 -2.47510585E+01  0.00000000E+00  1.23755293E+01
  1.23755293E+01 -2.47510585E+01  0.00000000E+00  1.23755293E+01  1.23755293E+01
 -2.47510585E+01  0.00000000E+00  1.23755293E+01  1.23755293E+01 -2.47510585E+01
  0.00000000E+00  1.23755293E+01  1.23755293E+01 -2.47510585E+01  0.00000000E+00
  1.23755293E+01  1.23755293E+01 -2.47510585E+01  0.00000000E+00  1.23755293E+01
  1.23755293E+01 -2.47510585E+01  0.00000000E+00  1.23755293E+01  1.23755293E+01
 -2.47510585E+01  0.00000000E+00  1.23755293E+01  1.23755293E+01 -2.47510585E+01
  0.00000000E+00  1.23755293E+01  1.23755293E+01 -2.47510585E+01  0.00000000E+00
  1.23755293E+01  1.23755293E+01 -2.47510585E+01  0.00000000E+00  1.23755293E+01
  1.23755293E+01 -2.47510585E+01  0.00000000E+00  1.23755293E+01  1.23755293E+01
 -2.47510585E+01  0.00000000E+00  1.23755293E+01  1.23755293E+01 -2.47510585E+01
  0.00000000E+00  1.23755293E+01  1.23755293E+01 -2.47510585E+01  0.00000000E+00
  1.23755293E+01  1.23755293E+01 -2.47510585E+01  0.00000000E+00  1.23755293E+01
  1.23755293E+01 -2.47510585E+01  0.00000000E+00  1.23755293E+01  1.23755293E+01
 -2.47510585E+01  0.00000000E+00  1.23755293E+01  1.23755293E+01 -2.47510585E+01
  0.00000000E+00  1.23755293E+01  1.23755293E+01 -2.47510585E+01  0.00000000E+00
  1.23755293E+01  1.23755293E+01 -2.47510585E+01  0.00000000E+00  1.23755293E+01
  1.23755293E+01 -2.47510585E+01  0.00000000E+00  1.23755293E+01  1.23755293E+01
 -2.47510585E+01  0.00000000E+00  1.23755293E+01  1.23755293E+01 -2.47510585E+01
  0.00000000E+00  1.23755293E+01  1.23755293E+01 -2.47510585E+01  0.00000000E+00
  1.23755293E+01  1.23755293E+01 -2.47510585E+01  0.00000000E+00  1.23755293E+01
  1.23755293E+01 -2.47510585E+01  0.00000000E+00  1.23755293E+01  1.23755293E+01
 -2.47510585E+01  0.00000000E+00  1.23755293E+01  1.23755293E+01 -2.47510585E+01
  0.00000000E+00  1.23755293E+01  1.23755293E+01 -2.47510585E+01  0.00000000E+00
  1.23755293E+01  1.23755293E+01 -2.47510585E+01  0.00000000E+00  1.23755293E+01
  1.23755293E+01 -2.47510585E+01  0.00000000E+00  1.23755293E+01  1.23755293E+01
 -2.47510585E+01  0.00000000E+00  1.23755293E+01  1.23755293E+01 -2.47510585E+01
  0.00000000E+00  1.23755293E+01  1.23755293E+01 -2.47510585E+01  0.00000000E+00
  1.23755293E+01  1.23755293E+01 -2.47510585E+01  0.00000000E+00  1.23755293E+01
  1.23755293E+01 -2.47510585E+01  0.00000000E+00  1.23755293E+01  1.23755293E+01
 -2.47510585E+01  0.00000000E+00  1.23755293E+01  1.23755293E+01 -2.47510585E+01
  0.00000000E+00  1.23755293E+01  1.23755293E+01 -2.47510585E+01  0.00000000E+00
  1.23755293E+01  1.23755293E+01 -2.47510585E+01  0.00000000E+00  1.23755293E+01
  1.23755293E+01 -2.47510585E+01  0.00000000E+00  1.23755293E+01  1.23755293E+01
 -2.47510585E+01  0.00000000E+00  1.23755293E+01  1.23755293E+01 -2.47510585E+01
  0.00000000E+00  1.23755293E+01  1.23755293E+01 -2.47510585E+01  0.00000000E+00
  1.23755293E+01  1.23755293E+01 -2.47510585E+01  0.00000000E+00  1.23755293E+01
  1.23755293E+01 -2.47510585E+01  0.00000000E+00  1.23755293E+01  1.23755293E+01
 -2.47510585E+01  0.00000000E+00  1.23755293E+01  1.23755293E+01 -2.47510585E+01
  0.00000000E+00  1.23755293E+01  1.23755293E+01 -2.47510585E+01  0.00000000E+00
  1.23755293E+01  1.23755293E+01 -2.47510585E+01  0.00000000E+00  1.23755293E+01
  1.23755293E+01 -2.47510585E+01  0.00000000E+00  1.23755293E+01  1.23755293E+01
 -2.47510585E+01  0.00000000E+00  1.23755293E+01  1.23755293E+01 -2.47510585E+01
  0.00000000E+00  1.23755293E+01  1.23755293E+01 -2.47510585E+01  0.00000000E+00
  1.23755293E+01  1.23755293E+01 -2.47510585E+01  0.00000000E+00  1.23755293E+01
  1.23755293E+01 -2.47510585E+01  0.00000000E+00  1.23755293E+01  1.23755293E+01
 -2.47510585E+01  0.00000000E+00  1.23755293E+01  1.23755293E+01 -2.47510585E+01
  0.00000000E+00  1.23755293E+01  1.23755293E+01 -2.47510585E+01  0.00000000E+00
  1.23755293E+01  1.23755293E+01 -2.47510585E+01  0.00000000E+00  1.23755293E+01
  1.23755293E+01 -2.47510585E+01  0.00000000E+00  1.23755293E+01  1.23755293E+01
 -2.47510585E+01  0.00000000E+00  1.23755293E+01  1.23755293E+01 -2.47510585E+01
  0.00000000E+00  1.23755293E+01  1.23755293E+01 -2.47510585E+01  0.00000000E+00
  1.23755293E+01  1.23755293E+01 -2.47510585E+01  0.00000000E+00  1.23755293E+01
  1.23755293E+01 -2.47510585E+01  0.00000000E+00  1.23755293E+01  1.23755293E+01
 -2.47510585E+01  0.00000000E+00  1.23755293E+01  1.23755293E+01 -2.47510585E+01
  0.00000000E+00  1.23755293E+01  1.23755293E+01 -2.47510585E+01  0.00000000E+00
  1.23755293E+01  1.23755293E+01 -2.47510585E+01  0.00000000E+00  1.23755293E+01
  1.23755293E+01 -2.47510585E+01  0.00000000E+00  1.23755293E+01  1.23755293E+01
 -2.47510585E+01  0.00000000E+00  1.23755293E+01  1.23755293E+01 -2.47510585E+01
  0.00000000E+00  1.23755293E+01  1.23755293E+01 -2.47510585E+01  0.00000000E+00
  1.23755293E+01  1.23755293E+01 -2.47510585E+01  0.00000000E+00  1.23755293E+01
  1.23755293E+01 -2.47510585E+01  0.00000000E+00  1.23755293E+01  1.23755293E+01
 -2.47510585E+01  0.00000000E+00  1.23755293E+01  1.23755293E+01 -2.47510585E+01
  0.00000000E+00  1.23755293E+01  1.23755293E+01 -2.47510585E+01  0.00000000E+00
  1.23755293E+01  1.23755293E+01 -2.47510585E+01  0.00000000E+00  1.23755293E+01
  1.23755293E+01 -2.47510585E+01  0.00000000E+00  1.23755293E+01  1.23755293E+01
 -2.47510585E+01  0.00000000E+00  1.23755293E+01  1.23755293E+01 -2.47510585E+01
  0.00000000E+00  1.23755293E+01  1.23755293E+01 -2.47510585E+01  0.00000000E+00
  1.23755293E+01  1.23755293E+01 -2.47510585E+01  0.00000000E+00  1.23755293E+01
  1.23755293E+01 -2.47510585E+01  0.00000000E+00  1.23755293E+01  1.23755293E+01
 -2.47510585E+01  0.00000000E+00  1.23755293E+01  1.23755293E+01 -2.47510585E+01
  0.00000000E+00  1.23755293E+01  1.23755293E+01 -2.47510585E+01  0.00000000E+00
  1.23755293E+01  1.23755293E+01 -2.47510585E+01  0.00000000E+00  1.23755293E+01
  1.23755293E+01 -2.47510585E+01  0.00000000E+00  1.23755293E+01  1.23755293E+01
 -2.47510585E+01  0.00000000E+00  1.23755293E+01  1.23755293E+01 -2.47510585E+01
  0.00000000E+00  1.23755293E+01  1.23755293E+01 -2.47510585E+01  0.00000000E+00
  1.23755293E+01  1.23755293E+01 -2.47510585E+01  0.00000000E+00  1.23755293E+01
  1.23755293E+01 -2.47510585E+01  0.00000000E+00  1.23755293E+01  1.23755293E+01
 -2.47510585E+01  0.00000000E+00  1.23755293E+01  1.23755293E+01 -2.47510585E+01
  0.00000000E+00  1.23755293E+01  1.23755293E+01 -2.47510585E+01  0.00000000E+00
  1.23755293E+01  1.23755293E+01 -2.47510585E+01  0.00000000E+00  1.23755293E+01
  1.23755293E+01 -2.47510585E+01  0.00000000E+00  1.23755293E+01  1.23755293E+01
 -2.47510585E+01  0.00000000E+00  1.23755293E+01  1.23755293E+01 -2.47510585E+01
  0.00000000E+00  1.23755293E+01  1.23755293E+01 -2.47510585E+01  0.00000000E+00
  1.23755293E+01  1.23755293E+01 -2.47510585E+01  0.00000000E+00  1.23755293E+01
  1.23755293E+01 -2.47510585E+01  0.00000000E+00  1.23755293E+01  1.23755293E+01
 -2.47510585E+01  0.00000000E+00  1.23755293E+01  1.23755293E+01 -2.47510585E+01
  0.00000000E+00  1.23755293E+01  1.23755293E+01 -2.47510585E+01  0.00000000E+00
  1.23755293E+01  1.23755293E+01 -2.47510585E+01  0.00000000E+00  1.23755293E+01
  1.23755293E+01 -2.47510585E+01  0.00000000E+00  1.23755293E+01  1.23755293E+01
 -2.47510585E+01  0.00000000E+00  1.23755293E+01  1.23755293E+01 -2.47510585E+01
  0.00000000E+00  1.23755293E+01  1.23755293E+01 -2.47510585E+01  0.00000000E+00
  1.23755293E+01  1.23755293E+01 -2.47510585E+01  0.00000000E+00  1.23755293E+01
  1.23755293E+01 -2.47510585E+01  0.00000000E+00  1.23755293E+01  1.23755293E+01
 -2.47510585E+01  0.00000000E+00  1.23755293E+01  1.23755293E+01 -2.47510585E+01
  0.00000000E+00  1.23755293E+01  1.23755293E+01 -2.47510585E+01  0.00000000E+00
  1.23755293E+01  1.23755293E+01 -2.47510585E+01  0.00000000E+00  1.23755293E+01
  1.23755293E+01 -2.47510585E+01  0.00000000E+00  1.23755293E+01  1.23755293E+01
 -2.47510585E+01  0.00000000E+00  1.23755293E+01  1.23755293E+01 -2.47510585E+01
  0.00000000E+00  1.23755293E+01  1.23755293E+01 -2.47510585E+01  0.00000000E+00
  1.23755293E+01  1.23755293E+01 -2.47510585E+01  0.00000000E+00  1.23755293E+01
  1.23755293E+01 -2.47510585E+01  0.00000000E+00  1.23755293E+01  1.23755293E+01
 -2.47510585E+01  0.00000000E+00  1.23755293E+01  1.23755293E+01 -2.47510585E+01
  0.00000000E+00  1.23755293E+01  1.23755293E+01 -2.47510585E+01  0.00000000E+00
  1.23755293E+01  1.23755293E+01 -2.47510585E+01  0.00000000E+00  1.23755293E+01
  1.23755293E+01 -2.47510585E+01  0.00000000E+00  1.23755293E+01  1.23755293E+01
 -2.47510585E+01  0.00000000E+00  1.23755293E+01  1.23755293E+01 -2.47510585E+01
  0.00000000E+00  1.23755293E+01  1.23755293E+01 -2.47510585E+01  0.00000000E+00
  1.23755293E+01  1.23755293E+01 -2.47510585E+01  0.00000000E+00  1.23755293E+01
  1.23755293E+01 -2.47510585E+01  0.00000000E+00  1.23755293E+01  1.23755293E+01
 -2.47510585E+01  0.00000000E+00  1.23755293E+01  1.23755293E+01 -2.47510585E+01
  0.00000000E+00  1.23755293E+01  1.23755293E+01 -2.47510585E+01  0.00000000E+00
  1.23755293E+01  1.23755293E+01 -2.47510585E+01  0.00000000E+00  1.23755293E+01
  1.23755293E+01 -2.47510585E+01  0.00000000E+00  1.23755293E+01  1.23755293E+01
 -2.47510585E+01  0.00000000E+00  1.23755293E+01  1.23755293E+01 -2.47510585E+01
  0.00000000E+00  1.23755293E+01  1.23755293E+01 -2.47510585E+01  0.00000000E+00
  1.23755293E+01  1.23755293E+01 -2.47510585E+01  0.00000000E+00  1.23755293E+01
  1.23755293E+01 -2.47510585E+01  0.00000000E+00  1.23755293E+01  1.23755293E+01
 -2.47510585E+01  0.00000000E+00  1.23755293E+01  1.23755293E+01 -2.47510585E+01
  0.00000000E+00  1.23755293E+01  1.23755293E+01 -2.47510585E+01  0.00000000E+00
  1.23755293E+01  1.23755293E+01 -2.47510585E+01  0.00000000E+00  1.23755293E+01
  1.23755293E+01 -2.47510585E+01  0.00000000E+00  1.23755293E+01  1.23755293E+01
 -2.47510585E+01  0.00000000E+00  1.23755293E+01  1.23755293E+01 -2.47510585E+01
  0.00000000E+00  1.23755293E+01  1.23755293E+01 -2.47510585E+01  0.00000000E+00
  1.23755293E+01  1.23755293E+01 -2.47510585E+01  0.00000000E+00  1.23755293E+01
  1.23755293E+01 -2.47510585E+01  0.00000000E+00  1.23755293E+01  1.23755293E+01
 -2.47510585E+01  0.00000000E+00  1.23755293E+01  1.23755293E+01 -2.47510585E+01
  0.00000000E+00  1.23755293E+01  1.23755293E+01 -2.47510585E+01  0.00000000E+00
  1.23755293E+01  1.23755293E+01 -2.47510585E+01  0.00000000E+00  1.23755293E+01
  1.23755293E+01 -2.47510585E+01  0.00000000E+00  1.23755293E+01  1.23755293E+01
 -2.47510585E+01  0.00000000E+00  1.23755293E+01  1.23755293E+01 -2.47510585E+01
  0.00000000E+00  1.23755293E+01  1.23755293E+01 -2.47510585E+01  0.00000000E+00
  1.23755293E+01  1.23755293E+01 -2.47510585E+01  0.00000000E+00  1.23755293E+01
  1.23755293E+01 -2.47510585E+01  0.00000000E+00  1.23755293E+01  1.23755293E+01
 -2.47510585E+01  0.00000000E+00  1.23755293E+01  1.23755293E+01 -2.47510585E+01
  0.00000000E+00  1.23755293E+01  1.23755293E+01 -2.47510585E+01  0.00000000E+00
  1.23755293E+01  1.23755293E+01 -2.47510585E+01  0.00000000E+00  1.23755293E+01
  1.23755293E+01 -2.47510585E+01  0.00000000E+00  1.23755293E+01  1.23755293E+01
 -2.47510585E+01  0.00000000E+00  1.23755293E+01  1.23755293E+01 -2.47510585E+01
  0.00000000E+00  1.23755293E+01  1.23755293E+01 -2.47510585E+01  0.00000000E+00
  1.23755293E+01  1.23755293E+01 -2.47510585E+01  0.00000000E+00  1.23755293E+01
  1.23755293E+01 -2.47510585E+01  0.00000000E+00  1.23755293E+01  1.23755293E+01
 -2.47510585E+01  0.00000000E+00  1.23755293E+01  1.23755293E+01 -2.47510585E+01
  0.00000000E+00  1.23755293E+01  1.23755293E+01 -2.47510585E+01  0.00000000E+00
  1.23755293E+01  1.23755293E+01 -2.47510585E+01  0.00000000E+00  1.23755293E+01
  1.23755293E+01 -2.47510585E+01  0.00000000E+00  1.23755293E+01  1.23755293E+01
 -2.47510585E+01  0.00000000E+00  1.23755293E+01  1.23755293E+01 -2.47510585E+01
  0.00000000E+00  1.23755293E+01  1.23755293E+01 -2.47510585E+01  0.00000000E+00
  1.23755293E+01  1.23755293E+01 -2.47510585E+01  0.00000000E+00  1.23755293E+01
  1.23755293E+01 -2.47510585E+01  0.00000000E+00  1.23755293E+01  1.23755293E+01
 -2.47510585E+01  0.00000000E+00  1.23755293E+01  1.23755293E+01 -2.47510585E+01
  0.00000000E+00  1.23755293E+01  1.23755293E+01 -2.47510585E+01  0.00000000E+00
  1.23755293E+01  1.23755293E+01 -2.47510585E+01  0.00000000E+00  1.23755293E+01
  1.23755293E+01 -2.47510585E+01  0.00000000E+00  1.23755293E+01  1.23755293E+01
 -2.47510585E+01  0.00000000E+00  1.23755293E+01  1.23755293E+01 -2.47510585E+01
  0.00000000E+00  1.23755293E+01  1.23755293E+01 -2.47510585E+01  0.00000000E+00
  1.23755293E+01  1.23755293E+01 -2.47510585E+01  0.00000000E+00  1.23755293E+01
  1.23755293E+01 -2.47510585E+01  0.00000000E+00  1.23755293E+01  1.23755293E+01
 -2.47510585E+01  0.00000000E+00  1.23755293E+01  1.23755293E+01 -2.47510585E+01
  0.00000000E+00  1.23755293E+01  1.23755293E+01 -2.47510585E+01  0.00000000E+00
  1.23755293E+01  1.23755293E+01 -2.47510585E+01  0.00000000E+00  1.23755293E+01
  1.23755293E+01 -2.47510585E+01  0.00000000E+00  1.23755293E+01  1.23755293E+01
 -2.47510585E+01  0.00000000E+00  1.23755293E+01  1.23755293E+01 -2.47510585E+01
  0.00000000E+00  1.23755293E+01  1.23755293E+01 -2.47510585E+01  0.00000000E+00
  1.23755293E+01  1.23755293E+01 -2.47510585E+01  0.00000000E+00  1.23755293E+01
  1.23755293E+01 -2.47510585E+01  0.00000000E+00  1.23755293E+01  1.23755293E+01
 -2.47510585E+01  0.00000000E+00  1.23755293E+01  1.23755293E+01 -2.47510585E+01
  0.00000000E+00  1.23755293E+01  1.23755293E+01 -2.47510585E+01  0.00000000E+00
  1.23755293E+01  1.23755293E+01 -2.47510585E+01  0.00000000E+00  1.23755293E+01
  1.23755293E+01 -2.47510585E+01  0.00000000E+00  1.23755293E+01  1.23755293E+01
 -2.47510585E+01  0.00000000E+00  1.23755293E+01  1.23755293E+01 -2.47510585E+01
  0.00000000E+00  1.23755293E+01  1.23755293E+01 -2.47510585E+01  0.00000000E+00
  1.23755293E+01  1.23755293E+01 -2.47510585E+01  0.00000000E+00  1.23755293E+01
  1.23755293E+01 -2.47510585E+01  0.00000000E+00  1.23755293E+01  1.23755293E+01
 -2.47510585E+01  0.00000000E+00  1.23755293E+01  1.23755293E+01 -2.47510585E+01
  0.00000000E+00  1.23755293E+01  1.23755293E+01 -2.47510585E+01  0.00000000E+00
  1.23755293E+01  1.23755293E+01 -2.47510585E+01  0.00000000E+00  1.23755293E+01
  1.23755293E+01 -2.47510585E+01  0.00000000E+00  1.23755293E+01  1.23755293E+01
 -2.47510585E+01  0.00000000E+00  1.23755293E+01  1.23755293E+01 -2.47510585E+01
  0.00000000E+00  1.23755293E+01  1.23755293E+01 -2.47510585E+01  0.00000000E+00
  1.23755293E+01  1.23755293E+01 -2.47510585E+01  0.00000000E+00  1.23755293E+01
  1.23755293E+01 -2.47510585E+01  0.00000000E+00  1.23755293E+01  1.23755293E+01
 -2.47510585E+01  0.00000000E+00  1.23755293E+01  1.23755293E+01 -2.47510585E+01
  0.00000000E+00  1.23755293E+01  1.23755293E+01 -2.47510585E+01  0.00000000E+00
  1.23755293E+01  1.23755293E+01 -2.47510585E+01  0.00000000E+00  1.23755293E+01
  1.23755293E+01 -2.47510585E+01  0.00000000E+00  1.23755293E+01  1.23755293E+01
 -2.47510585E+01  0.00000000E+00  1.23755293E+01  1.23755293E+01 -2.47510585E+01
  0.00000000E+00  1.23755293E+01  1.23755293E+01 -2.47510585E+01  0.00000000E+00
  1.23755293E+01  1.23755293E+01 -2.47510585E+01  0.00000000E+00  1.23755293E+01
  1.23755293E+01 -2.47510585E+01  0.00000000E+00  1.23755293E+01  1.23755293E+01
 -2.47510585E+01  0.00000000E+00  1.23755293E+01  1.23755293E+01 -2.47510585E+01
  0.00000000E+00  1.23755293E+01  1.23755293E+01 -2.47510585E+01  0.00000000E+00
  1.23755293E+01  1.23755293E+01 -2.47510585E+01  0.00000000E+00  1.23755293E+01
  1.23755293E+01 -2.47510585E+01  0.00000000E+00  1.23755293E+01  1.23755293E+01
 -2.47510585E+01  0.00000000E+00  1.23755293E+01  1.23755293E+01 -2.47510585E+01
  0.00000000E+00  1.23755293E+01  1.23755293E+01 -2.47510585E+01  0.00000000E+00
  1.23755293E+01  1.23755293E+01 -2.47510585E+01  0.00000000E+00  1.23755293E+01
  1.23755293E+01 -2.47510585E+01  0.00000000E+00  1.23755293E+01  1.23755293E+01
 -2.47510585E+01  0.00000000E+00  1.23755293E+01  1.23755293E+01 -2.47510585E+01
  0.00000000E+00  1.23755293E+01  1.23755293E+01 -2.47510585E+01  0.00000000E+00
  1.23755293E+01  1.23755293E+01 -2.47510585E+01  0.00000000E+00  1.23755293E+01
  1.23755293E+01 -2.47510585E+01  0.00000000E+00  1.23755293E+01  1.23755293E+01
 -2.47510585E+01  0.00000000E+00  1.23755293E+01  1.23755293E+01 -2.47510585E+01
  0.00000000E+00  1.23755293E+01  1.23755293E+01 -2.47510585E+01  0.00000000E+00
  1.23755293E+01  1.23755293E+01 -2.47510585E+01  0.00000000E+00  1.23755293E+01
  1.23755293E+01 -2.47510585E+01  0.00000000E+00  1.23755293E+01  1.23755293E+01
 -2.47510585E+01  0.00000000E+00  1.23755293E+01  1.23755293E+01 -2.47510585E+01
  0.00000000E+00  1.23755293E+01  1.23755293E+01 -2.47510585E+01  0.00000000E+00
  1.23755293E+01  1.23755293E+01 -2.47510585E+01  0.00000000E+00  1.23755293E+01
  1.23755293E+01 -2.47510585E+01  0.00000000E+00  1.23755293E+01  1.23755293E+01
 -2.47510585E+01  0.00000000E+00  1.23755293E+01  1.23755293E+01 -2.47510585E+01
  0.00000000E+00  1.23755293E+01  1.23755293E+01 -2.47510585E+01  0.00000000E+00
  1.23755293E+01  1.23755293E+01 -2.47510585E+01  0.00000000E+00  1.23755293E+01
  1.23755293E+01 -2.47510585E+01  0.00000000E+00  1.23755293E+01  1.23755293E+01
 -2.47510585E+01  0.00000000E+00  1.23755293E+01  1.23755293E+01 -2.47510585E+01
  0.00000000E+00  1.23755293E+01  1.23755293E+01 -2.47510585E+01  0.00000000E+00
  1.23755293E+01  1.23755293E+01 -2.47510585E+01  0.00000000E+00  1.23755293E+01
  1.23755293E+01 -2.47510585E+01  0.00000000E+00  1.23755293E+01  1.23755293E+01
 -2.47510585E+01  0.00000000E+00  1.23755293E+01  1.23755293E+01 -2.47510585E+01
  0.00000000E+00  1.23755293E+01  1.23755293E+01 -2.47510585E+01  0.00000000E+00
  1.23755293E+01  1.23755293E+01 -2.47510585E+01  0.00000000E+00  1.23755293E+01
  1.23755293E+01 -2.47510585E+01  0.00000000E+00  1.23755293E+01  1.23755293E+01
 -2.47510585E+01  0.00000000E+00  1.23755293E+01  1.23755293E+01 -2.47510585E+01
  0.00000000E+00  1.23755293E+01  1.23755293E+01 -2.47510585E+01  0.00000000E+00
  1.23755293E+01  1.23755293E+01 -2.47510585E+01  0.00000000E+00  1.23755293E+01
  1.23755293E+01 -2.47510585E+01  0.00000000E+00  1.23755293E+01  1.23755293E+01
 -2.47510585E+01  0.00000000E+00  1.23755293E+01  1.23755293E+01 -2.47510585E+01
  0.00000000E+00  1.23755293E+01  1.23755293E+01 -2.47510585E+01  0.00000000E+00
  1.23755293E+01  1.23755293E+01 -2.47510585E+01  0.00000000E+00  1.23755293E+01
  1.23755293E+01 -2.47510585E+01  0.00000000E+00  1.23755293E+01  1.23755293E+01
 -2.47510585E+01  0.00000000E+00  1.23755293E+01  1.23755293E+01 -2.47510585E+01
  0.00000000E+00  1.23755293E+01  1.23755293E+01 -2.47510585E+01  0.00000000E+00
  1.23755293E+01  1.23755293E+01 -2.47510585E+01  0.00000000E+00  1.23755293E+01
  1.23755293E+01 -2.47510585E+01  0.00000000E+00  1.23755293E+01  1.23755293E+01
 -2.47510585E+01  0.00000000E+00  1.23755293E+01  1.23755293E+01 -2.47510585E+01
  0.00000000E+00  1.23755293E+01  1.23755293E+01 -2.47510585E+01  0.00000000E+00
  1.23755293E+01  1.23755293E+01 -2.47510585E+01  0.00000000E+00  1.23755293E+01
  1.23755293E+01 -2.47510585E+01  0.00000000E+00  1.23755293E+01  1.23755293E+01
 -2.47510585E+01  0.00000000E+00  1.23755293E+01  1.23755293E+01 -2.47510585E+01
  0.00000000E+00  1.23755293E+01  1.23755293E+01 -2.47510585E+01  0.00000000E+00
  1.23755293E+01  1.23755293E+01 -2.47510585E+01  0.00000000E+00  1.23755293E+01
  1.23755293E+01 -2.47510585E+01  0.00000000E+00  1.23755293E+01  1.23755293E+01
 -2.47510585E+01  0.00000000E+00  1.23755293E+01  1.23755293E+01 -2.47510585E+01
  0.00000000E+00  1.23755293E+01  1.23755293E+01 -2.47510585E+01  0.00000000E+00
  1.23755293E+01  1.23755293E+01 -2.47510585E+01  0.00000000E+00  1.23755293E+01
  1.23755293E+01 -2.47510585E+01  0.00000000E+00  1.23755293E+01  1.23755293E+01
 -2.47510585E+01  0.00000000E+00  1.23755293E+01  1.23755293E+01 -2.47510585E+01
  0.00000000E+00  1.23755293E+01  1.23755293E+01 -2.47510585E+01  0.00000000E+00
  1.23755293E+01  1.23755293E+01 -2.47510585E+01  0.00000000E+00  1.23755293E+01
  1.23755293E+01 -2.47510585E+01  0.00000000E+00  1.23755293E+01  1.23755293E+01
 -2.47510585E+01  0.00000000E+00  1.23755293E+01  1.23755293E+01 -2.47510585E+01
  0.00000000E+00  1.23755293E+01  1.23755293E+01 -2.47510585E+01  0.00000000E+00
  1.23755293E+01  1.23755293E+01 -2.47510585E+01  0.00000000E+00  1.23755293E+01
  1.23755293E+01 -2.47510585E+01  0.00000000E+00  1.23755293E+01  1.23755293E+01
 -2.47510585E+01  0.00000000E+00  1.23755293E+01  1.23755293E+01 -2.47510585E+01
  0.00000000E+00  1.23755293E+01  1.23755293E+01 -2.47510585E+01  0.00000000E+00
  1.23755293E+01  1.23755293E+01 -2.47510585E+01  0.00000000E+00  1.23755293E+01
  1.23755293E+01 -2.47510585E+01  0.00000000E+00  1.23755293E+01  1.23755293E+01
 -2.47510585E+01  0.00000000E+00  1.23755293E+01  1.23755293E+01 -2.47510585E+01
  0.00000000E+00  1.23755293E+01  1.23755293E+01 -2.47510585E+01  0.00000000E+00
  1.23755293E+01  1.23755293E+01 -2.47510585E+01  0.00000000E+00  1.23755293E+01
  1.23755293E+01 -2.47510585E+01  0.00000000E+00  1.23755293E+01  1.23755293E+01
 -2.47510585E+01  0.00000000E+00  1.23755293E+01  1.23755293E+01 -2.47510585E+01
  0.00000000E+00  1.23755293E+01  1.23755293E+01 -2.47510585E+01  0.00000000E+00
  1.23755293E+01  1.23755293E+01 -2.47510585E+01  0.00000000E+00  1.23755293E+01
  1.23755293E+01 -2.47510585E+01  0.00000000E+00  1.23755293E+01  1.23755293E+01
 -2.47510585E+01  0.00000000E+00  1.23755293E+01  1.23755293E+01 -2.47510585E+01
  0.00000000E+00  1.23755293E+01  1.23755293E+01 -2.47510585E+01  0.00000000E+00
  1.23755293E+01  1.23755293E+01 -2.47510585E+01  0.00000000E+00  1.23755293E+01
  1.23755293E+01 -2.47510585E+01  0.00000000E+00  1.23755293E+01  1.23755293E+01
 -2.47510585E+01  0.00000000E+00  1.23755293E+01  1.23755293E+01 -2.47510585E+01
  0.00000000E+00  1.23755293E+01  1.23755293E+01 -2.47510585E+01  0.00000000E+00
  1.23755293E+01  1.23755293E+01 -2.47510585E+01  0.00000000E+00  1.23755293E+01
  1.23755293E+01 -2.47510585E+01  0.00000000E+00  1.23755293E+01  1.23755293E+01
 -2.47510585E+01  0.00000000E+00  1.23755293E+01  1.23755293E+01 -2.47510585E+01
  0.00000000E+00  1.23755293E+01  1.23755293E+01 -2.47510585E+01  0.00000000E+00
  1.23755293E+01  1.23755293E+01 -2.47510585E+01  0.00000000E+00  1.23755293E+01
  1.23755293E+01 -2.47510585E+01  0.00000000E+00  1.23755293E+01  1.23755293E+01
 -2.47510585E+01  0.00000000E+00  1.23755293E+01  1.23755293E+01 -2.47510585E+01
  0.00000000E+00  1.23755293E+01  1.23755293E+01 -2.47510585E+01  0.00000000E+00
  1.23755293E+01  1.23755293E+01 -2.47510585E+01  0.00000000E+00  1.23755293E+01
  1.23755293E+01 -2.47510585E+01  0.00000000E+00  1.23755293E+01  1.23755293E+01
 -2.47510585E+01  0.00000000E+00  1.23755293E+01  1.23755293E+01 -2.47510585E+01
  0.00000000E+00  1.23755293E+01  1.23755293E+01 -2.47510585E+01  0.00000000E+00
  1.23755293E+01  1.23755293E+01 -2.47510585E+01  0.00000000E+00  1.23755293E+01
  1.23755293E+01 -2.47510585E+01  0.00000000E+00  1.23755293E+01  1.23755293E+01
 -2.47510585E+01  0.00000000E+00  1.23755293E+01  1.23755293E+01 -2.47510585E+01
  0.00000000E+00  1.23755293E+01  1.23755293E+01 -2.47510585E+01  0.00000000E+00
  1.23755293E+01  1.23755293E+01 -2.47510585E+01  0.00000000E+00  1.23755293E+01
  1.23755293E+01 -2.47510585E+01  0.00000000E+00  1.23755293E+01  1.23755293E+01
 -2.47510585E+01  0.00000000E+00  1.23755293E+01  1.23755293E+01 -2.47510585E+01
  0.00000000E+00  1.23755293E+01  1.23755293E+01 -2.47510585E+01  0.00000000E+00
  1.23755293E+01  1.23755293E+01 -2.47510585E+01  0.00000000E+00  1.23755293E+01
  1.23755293E+01 -2.47510585E+01  0.00000000E+00  1.23755293E+01  1.23755293E+01
 -2.47510585E+01  0.00000000E+00  1.23755293E+01  1.23755293E+01 -2.47510585E+01
  0.00000000E+00  1.23755293E+01  1.23755293E+01 -2.47510585E+01  0.00000000E+00
  1.23755293E+01  1.23755293E+01 -2.47510585E+01  0.00000000E+00  1.23755293E+01
  1.23755293E+01 -2.47510585E+01  0.00000000E+00  1.23755293E+01  1.23755293E+01
 -2.47510585E+01  0.00000000E+00  1.23755293E+01  1.23755293E+01 -2.47510585E+01
  0.00000000E+00  1.23755293E+01  1.23755293E+01 -2.47510585E+01  0.00000000E+00
  1.23755293E+01  1.23755293E+01 -2.47510585E+01  0.00000000E+00  1.23755293E+01
  1.23755293E+01 -2.47510585E+01  0.00000000E+00  1.23755293E+01  1.23755293E+01
 -2.47510585E+01  0.00000000E+00  1.23755293E+01  1.23755293E+01 -2.47510585E+01
  0.00000000E+00  1.23755293E+01  1.23755293E+01 -2.47510585E+01  0.00000000E+00
  1.23755293E+01  1.23755293E+01 -2.47510585E+01  0.00000000E+00  1.23755293E+01
  1.23755293E+01 -2.47510585E+01  0.00000000E+00  1.23755293E+01  1.23755293E+01
 -2.47510585E+01  0.00000000E+00  1.23755293E+01  1.23755293E+01 -2.47510585E+01
  0.00000000E+00  1.23755293E+01  1.23755293E+01 -2.47510585E+01  0.00000000E+00
  1.23755293E+01  1.23755293E+01 -2.47510585E+01  0.00000000E+00  1.23755293E+01
  1.23755293E+01 -2.47510585E+01  0.00000000E+00  1.23755293E+01  1.23755293E+01
 -2.47510585E+01  0.00000000E+00  1.23755293E+01  1.23755293E+01 -2.47510585E+01
  0.00000000E+00  1.23755293E+01  1.23755293E+01 -2.47510585E+01  0.00000000E+00
  1.23755293E+01  1.23755293E+01 -2.47510585E+01  0.00000000E+00  1.23755293E+01
  1.23755293E+01 -2.47510585E+01  0.00000000E+00  1.23755293E+01  1.23755293E+01
 -2.47510585E+01  0.00000000E+00  1.23755293E+01  1.23755293E+01 -2.47510585E+01
  0.00000000E+00  1.23755293E+01  1.23755293E+01 -2.47510585E+01  0.00000000E+00
  1.23755293E+01  1.23755293E+01 -2.47510585E+01  0.00000000E+00  1.23755293E+01
  1.23755293E+01 -2.47510585E+01  0.00000000E+00  1.23755293E+01  1.23755293E+01
 -2.47510585E+01  0.00000000E+00  1.23755293E+01  1.23755293E+01 -2.47510585E+01
  0.00000000E+00  1.23755293E+01  1.23755293E+01 -2.47510585E+01  0.00000000E+00
  1.23755293E+01  1.23755293E+01 -2.47510585E+01  0.00000000E+00  1.23755293E+01
  1.23755293E+01 -2.47510585E+01  0.00000000E+00  1.23755293E+01  1.23755293E+01
 -2.47510585E+01  0.00000000E+00  1.23755293E+01  1.23755293E+01 -2.47510585E+01
  0.00000000E+00  1.23755293E+01  1.23755293E+01 -2.47510585E+01  0.00000000E+00
  1.23755293E+01  1.23755293E+01 -2.47510585E+01  0.00000000E+00  1.23755293E+01
  1.23755293E+01 -2.47510585E+01  0.00000000E+00  1.23755293E+01  1.23755293E+01
 -2.47510585E+01  0.00000000E+00  1.23755293E+01  1.23755293E+01 -2.47510585E+01
  0.00000000E+00  1.23755293E+01  1.23755293E+01 -2.47510585E+01  0.00000000E+00
  1.23755293E+01  1.23755293E+01 -2.47510585E+01  0.00000000E+00  1.23755293E+01
  1.23755293E+01 -2.47510585E+01  0.00000000E+00  1.23755293E+01  1.23755293E+01
 -2.47510585E+01  0.00000000E+00  1.23755293E+01  1.23755293E+01 -2.47510585E+01
%FLAG ATOMIC_NUMBER                                                             
%FORMAT(10I8)                                                                   
       7       1       1       1       6       1       6       1       1       1
       6       8       7       1       6       1       6       1       1       1
       6       8       7       1       6       1       6       1       1       1
       6       8       8       8       1       1       0       8       1       1
       0       8       1       1       0       8       1       1       0       8
       1       1       0       8       1       1       0       8       1       1
       0       8       1       1       0       8       1       1       0       8
       1       1       0       8       1       1       0       8       1       1
       0       8       1       1       0       8       1       1       0       8
       1       1       0       8       1       1       0       8       1       1
       0       8       1       1       0       8       1       1       0       8
       1       1       0       8       1       1       0       8       1       1
       0       8       1       1       0       8       1       1       0       8
       1       1       0       8       1       1       0       8       1       1
       0       8       1       1       0       8       1       1       0       8
       1       1       0       8       1       1       0       8       1       1
       0       8       1       1       0       8       1       1       0       8
       1       1       0       8       1       1       0       8       1       1
       0       8       1       1       0       8       1       1       0       8
       1       1       0       8       1       1       0       8       1       1
       0       8       1       1       0       8       1       1       0       8
       1       1       0       8       1       1       0       8       1       1
       0       8       1       1       0       8       1       1       0       8
       1       1       0       8       1       1       0       8       1       1
       0       8       1       1       0       8       1       1       0       8
       1       1       0       8       1       1       0       8       1       1
       0       8       1       1       0       8       1       1       0       8
       1       1       0       8       1       1       0       8       1       1
       0       8       1       1       0       8       1       1       0       8
       1       1       0       8       1       1       0       8       1       1
       0       8       1       1       0       8       1       1       0       8
       1       1       0       8       1       1       0       8       1       1
       0       8       1       1       0       8       1       1       0       8
       1       1       0       8       1       1       0       8       1       1
       0       8       1       1       0       8       1       1       0       8
       1       1       0       8       1       1       0       8       1       1
       0       8       1       1       0       8       1       1       0       8
       1       1       0       8       1       1       0       8       1       1
       0       8       1       1       0       8       1       1       0       8
       1       1       0       8       1       1       0       8       1       1
       0       8       1       1       0       8       1       1       0       8
       1       1       0       8       1       1       0       8       1       1
       0       8       1       1       0       8       1       1       0       8
       1       1       0       8       1       1       0       8       1       1
       0       8       1       1       0       8       1       1       0       8
       1       1       0       8       1       1       0       8       1       1
       0       8       1       1       0       8       1       1       0       8
       1       1       0       8       1       1       0       8       1       1
       0       8       1       1       0       8       1       1       0       8
       1       1       0       8       1       1       0       8       1       1
       0       8       1       1       0       8       1       1       0       8
       1       1       0       8       1       1       0       8       1       1
       0       8       1       1       0       8       1       1       0       8
       1       1       0       8       1       1       0       8       1       1
       0       8       1       1       0       8       1       1       0       8
       1       1       0       8       1       1       0       8       1       1
       0       8       1       1       0       8       1       1       0       8
       1       1       0       8       1       1       0       8       1       1
       0       8       1       1       0       8       1       1       0       8
       1       1       0       8       1       1       0       8       1       1
       0       8       1       1       0       8       1       1       0       8
       1       1       0       8       1       1       0       8       1       1
       0       8       1       1       0       8       1       1       0       8
       1       1       0       8       1       1       0       8       1       1
       0       8       1       1       0       8       1       1       0       8
       1       1       0       8       1       1       0       8       1       1
       0       8       1       1       0       8       1       1       0       8
       1       1       0       8       1       1       0       8       1       1
       0       8       1       1       0       8       1       1       0       8
       1       1       0       8       1       1       0       8       1       1
       0       8       1       1       0       8       1       1       0       8
       1       1       0       8       1       1       0       8       1       1
       0       8       1       1       0       8       1       1       0       8
       1       1       0       8       1       1       0       8       1       1
       0       8       1       1       0       8       1       1       0       8
       1       1       0       8       1       1       0       8       1       1
       0       8       1       1       0       8       1       1       0       8
       1       1       0       8       1       1       0       8       1       1
       0       8       1       1       0       8       1       1       0       8
       1       1       0       8       1       1       0       8       1       1
       0       8       1       1       0       8       1       1       0       8
       1       1       0       8       1       1       0       8       1       1
       0       8       1       1       0       8       1       1       0       8
       1       1       0       8       1       1       0       8       1       1
       0       8       1       1       0       8       1       1       0       8
       1       1       0       8       1       1       0       8       1       1
       0       8       1       1       0       8       1       1       0       8
       1       1       0       8       1       1       0       8       1       1
       0       8       1       1       0       8       1       1       0       8
       1       1       0       8       1       1       0       8       1       1
       0       8       1       1       0       8       1       1       0       8
       1       1       0       8       1       1       0       8       1       1
       0       8       1       1       0       8       1       1       0       8
       1       1       0       8       1       1       0       8       1       1
       0       8       1       1       0       8       1       1       0       8
       1       1       0       8       1       1       0       8       1       1
       0       8       1       1       0       8       1       1       0       8
       1       1       0       8       1       1       0       8       1       1
       0       8       1       1       0       8       1       1       0       8
       1       1       0       8       1       1       0       8       1       1
       0       8       1       1       0       8       1       1       0       8
       1       1       0       8       1       1       0       8       1       1
       0       8       1       1       0       8       1       1       0       8
       1       1       0       8       1       1       0       8       1       1
       0       8       1       1       0       8       1       1       0       8
       1       1       0       8       1       1       0       8       1       1
       0       8       1       1       0       8       1       1       0       8
       1       1       0       8       1       1       0       8       1       1
       0       8       1       1       0       8       1       1       0       8
       1       1       0       8       1       1       0       8       1       1
       0       8       1       1       0       8       1       1       0       8
       1       1       0       8       1       1       0       8       1       1
       0       8       1       1       0       8       1       1       0       8
       1       1       0       8       1       1       0       8       1       1
       0       8       1       1       0       8       1       1       0       8
       1       1       0       8       1       1       0       8       1       1
       0       8       1       1       0       8       1       1       0       8
       1       1       0       8       1       1       0       8       1       1
       0       8       1       1       0       8       1       1       0       8
       1       1       0       8       1       1       0       8       1       1
       0       8       1       1       0       8       1       1       0       8
       1       1       0       8       1       1       0       8       1       1
       0       8       1       1       0       8       1       1       0       8
       1       1       0       8       1       1       0       8       1       1
       0       8       1       1       0       8       1       1       0       8
       1       1       0       8       1       1       0       8       1       1
       0       8       1       1       0       8       1       1       0       8
       1       1       0       8       1       1       0       8       1       1
       0       8       1       1       0       8       1       1       0       8
       1       1       0       8       1       1       0       8       1       1
       0       8       1       1       0       8       1       1       0       8
       1       1       0       8       1       1       0       8       1       1
       0       8       1       1       0       8       1       1       0       8
       1       1       0       8       1       1       0       8       1       1
       0       8       1       1       0       8       1       1       0       8
       1       1       0       8       1       1       0       8       1       1
       0       8       1       1       0       8       1       1       0       8
       1       1       0       8       1       1       0       8       1       1
       0       8       1       1       0       8       1       1       0       8
       1       1       0       8       1       1       0       8       1       1
       0       8       1       1       0       8       1       1       0       8
       1       1       0       8       1       1       0       8       1       1
       0       8       1       1       0       8       1       1       0       8
       1       1       0       8       1       1       0       8       1       1
       0       8       1       1       0       8       1       1       0       8
       1       1       0       8       1       1       0       8       1       1
       0       8       1       1       0       8       1       1       0       8
       1       1       0       8       1       1       0       8       1       1
       0       8       1       1       0       8       1       1       0       8
       1       1       0       8       1       1       0       8       1       1
       0       8       1       1       0       8       1       1       0       8
       1       1       0       8       1       1       0       8       1       1
       0       8       1       1       0       8       1       1       0       8
       1       1       0       8       1       1       0       8       1       1
       0       8       1       1       0       8       1       1       0       8
       1       1       0       8       1       1       0       8       1       1
       0       8       1       1       0       8       1       1       0       8
       1       1       0       8       1       1       0       8       1       1
       0       8       1       1       0       8       1       1       0       8
       1       1       0       8       1       1       0       8       1       1
       0       8       1       1       0       8       1       1       0       8
       1       1       0       8       1       1       0       8       1       1
       0       8       1       1       0       8       1       1       0       8
       1       1       0       8       1       1       0       8       1       1
       0       8       1       1       0       8       1       1       0       8
       1       1       0       8       1       1       0       8       1       1
       0       8       1       1       0       8       1       1       0       8
       1       1       0       8       1       1       0       8       1       1
       0       8       1       1       0       8       1       1       0       8
       1       1       0       8       1       1       0       8       1       1
       0       8       1       1       0       8       1       1       0       8
       1       1       0       8       1       1       0       8       1       1
       0       8       1       1       0       8       1       1       0       8
       1       1       0       8       1       1       0       8       1       1
       0       8       1       1       0       8       1       1       0       8
       1       1       0       8       1       1       0       8       1       1
       0       8       1       1       0       8       1       1       0       8
       1       1       0       8       1       1       0       8       1       1
       0       8       1       1       0       8       1       1       0       8
       1       1       0       8       1       1       0       8       1       1
       0       8       1       1       0       8       1       1       0       8
       1       1       0       8       1       1       0       8       1       1
       0       8       1       1       0       8       1       1       0       8
       1       1       0       8       1       1       0       8       1       1
       0       8       1       1       0       8       1       1       0       8
       1       1       0       8       1       1       0       8       1       1
       0       8       1       1       0       8       1       1       0       8
       1       1       0       8       1       1       0       8       1       1
       0       8       1       1       0       8       1       1       0       8
       1       1       0       8       1       1       0       8       1       1
       0       8       1       1       0       8       1       1       0       8
       1       1       0       8       1       1       0       8       1       1
       0       8       1       1       0       8       1       1       0       8
       1       1       0       8       1       1       0       8       1       1
       0       8       1       1       0       8       1       1       0       8
       1       1       0       8       1       1       0       8       1       1
       0       8       1       1       0       8       1       1       0       8
       1       1       0       8       1       1       0       8       1       1
       0       8       1       1       0       8       1       1       0       8
       1       1       0       8       1       1       0       8       1       1
       0       8       1       1       0       8       1       1       0       8
       1       1       0       8       1       1       0       8       1       1
       0       8       1       1       0       8       1       1       0       8
       1       1       0       8       1       1       0       8       1       1
       0       8       1       1       0       8       1       1       0       8
       1       1       0       8       1       1       0       8       1       1
       0       8       1       1       0       8       1       1       0       8
       1       1       0       8       1       1       0       8       1       1
       0       8       1       1       0       8       1       1       0       8
       1       1       0       8       1       1       0       8       1       1
       0       8       1       1       0       8       1       1       0       8
       1       1       0       8       1       1       0       8       1       1
       0       8       1       1       0       8       1       1       0       8
       1       1       0       8       1       1       0       8       1       1
       0       8       1       1       0       8       1       1       0       8
       1       1       0       8       1       1       0       8       1       1
       0       8       1       1       0       8       1       1       0       8
       1       1       0       8       1       1       0       8       1       1
       0       8       1       1       0       8       1       1       0       8
       1       1       0       8       1       1       0       8       1       1
       0       8       1       1       0       8       1       1       0       8
       1       1       0       8       1       1       0       8       1       1
       0       8       1       1       0       8       1       1       0       8
       1       1       0       8       1       1       0       8       1       1
       0       8       1       1       0       8       1       1       0       8
       1       1       0       8       1       1       0       8       1       1
       0       8       1       1       0       8       1       1       0       8
       1       1       0       8       1       1       0       8       1       1
       0       8       1       1       0       8       1       1       0       8
       1       1       0       8       1       1       0       8       1       1
       0       8       1       1       0       8       1       1       0       8
       1       1       0       8       1       1       0       8       1       1
       0       8       1       1       0       8       1       1       0       8
       1       1       0       8       1       1       0       8       1       1
       0       8       1       1       0       8       1       1       0       8
       1       1       0       8       1       1       0       8       1       1
       0       8       1       1       0       8       1       1       0       8
       1       1       0       8       1       1       0       8       1       1
       0       8       1       1       0       8       1       1       0       8
       1       1       0       8       1       1       0       8       1       1
       0       8       1       1       0       8       1       1       0       8
       1       1       0       8       1       1       0       8       1       1
       0       8       1       1       0       8       1       1       0       8
       1       1       0       8       1       1       0       8       1       1
       0       8       1       1       0       8       1       1       0       8
       1       1       0       8       1       1       0       8       1       1
       0       8       1       1       0       8       1       1       0       8
       1       1       0       8       1       1       0       8       1       1
       0       8       1       1       0       8       1       1       0       8
       1       1       0       8       1       1       0       8       1       1
       0       8       1       1       0       8       1       1       0       8
       1       1       0       8       1       1       0       8       1       1
       0       8       1       1       0       8       1       1       0       8
       1       1       0       8       1       1       0       8       1       1
       0       8       1       1       0       8       1       1       0       8
       1       1       0       8       1       1       0       8       1       1
       0       8       1       1       0       8       1       1       0       8
       1       1       0       8       1       1       0       8       1       1
       0       8       1       1       0       8       1       1       0       8
       1       1       0       8       1       1       0       8       1       1
       0       8       1       1       0       8       1       1       0       8
       1       1       0       8       1       1       0       8       1       1
       0       8       1       1       0       8       1       1       0       8
       1       1       0       8       1       1       0       8       1       1
       0       8       1       1       0       8       1       1       0       8
       1       1       0       8       1       1       0       8       1       1
       0       8       1       1       0       8       1       1       0       8
       1       1       0       8       1       1       0       8       1       1
       0       8       1       1       0       8       1       1       0       8
       1       1       0       8       1       1       0       8       1       1
       0       8       1       1       0       8       1       1       0       8
       1       1       0       8       1       1       0       8       1       1
       0       8       1       1       0       8       1       1       0       8
       1       1       0       8       1       1       0       8       1       1
       0       8       1       1       0       8       1       1       0       8
       1       1       0       8       1       1       0       8       1       1
       0       8       1       1       0       8       1       1       0       8
       1       1       0       8       1       1       0       8       1       1
       0       8       1       1       0       8       1       1       0       8
       1       1       0       8       1       1       0       8       1       1
       0       8       1       1       0       8       1       1       0       8
       1       1       0       8       1       1       0       8       1       1
       0       8       1       1       0       8       1       1       0       8
       1       1       0       8       1       1       0       8       1       1
       0       8       1       1       0       8       1       1       0       8
       1       1       0       8       1       1       0       8       1       1
       0       8       1       1       0       8       1       1       0       8
       1       1       0       8       1       1       0       8       1       1
       0       8       1       1       0       8       1       1       0       8
       1       1       0       8       1       1       0       8       1       1
       0       8       1       1       0       8       1       1       0       8
       1       1       0       8       1       1       0       8       1       1
       0       8       1       1       0       8       1       1       0       8
       1       1       0       8       1       1       0       8       1       1
       0       8       1       1       0       8       1       1       0       8
       1       1       0       8       1       1       0       8       1       1
       0       8       1       1       0       8       1       1       0       8
       1       1       0       8       1       1       0       8       1       1
       0       8       1       1       0       8       1       1       0       8
       1       1       0       8       1       1       0       8       1       1
       0       8       1       1       0       8       1       1       0       8
       1       1       0       8       1       1       0       8       1       1
       0       8       1       1       0       8       1       1       0       8
       1       1       0       8       1       1       0       8       1       1
       0       8       1       1       0       8       1       1       0       8
       1       1       0       8       1       1       0       8       1       1
       0       8       1       1       0       8       1       1       0       8
       1       1       0       8       1       1       0       8       1       1
       0       8       1       1       0       8       1       1       0       8
       1       1       0       8       1       1       0       8       1       1
       0       8       1       1       0       8       1       1       0       8
       1       1       0       8       1       1       0       8       1       1
       0       8       1       1       0       8       1       1       0       8
       1       1       0       8       1       1       0       8       1       1
       0       8       1       1       0       8       1       1       0       8
       1       1       0       8       1       1       0       8       1       1
       0       8       1       1       0       8       1       1       0       8
       1       1       0       8       1       1       0       8       1       1
       0       8       1       1       0       8       1       1       0       8
       1       1       0       8       1       1       0       8       1       1
       0       8       1       1       0       8       1       1       0       8
       1       1       0       8       1       1       0       8       1       1
       0       8       1       1       0       8       1       1       0       8
       1       1       0       8       1       1       0       8       1       1
       0       8       1       1       0       8       1       1       0       8
       1       1       0       8       1       1       0       8       1       1
       0       8       1       1       0       8       1       1       0       8
       1       1       0       8       1       1       0       8       1       1
       0       8       1       1       0       8       1       1       0       8
       1       1       0       8       1       1       0       8       1       1
       0       8       1       1       0       8       1       1       0       8
       1       1       0       8       1       1       0       8       1       1
       0       8       1       1       0       8       1       1       0       8
       1       1       0       8       1       1       0       8       1       1
       0       8       1       1       0       8       1       1       0       8
       1       1       0       8       1       1       0       8       1       1
       0       8       1       1       0       8       1       1       0       8
       1       1       0       8       1       1       0       8       1       1
       0       8       1       1       0       8       1       1       0       8
       1       1       0       8       1       1       0       8       1       1
       0       8       1       1       0       8       1       1       0       8
       1       1       0       8       1       1       0       8       1       1
       0       8       1       1       0       8       1       1       0       8
       1       1       0       8       1       1       0       8       1       1
       0       8       1       1       0       8       1       1       0       8
       1       1       0       8       1       1       0       8       1       1
       0       8       1       1       0       8       1       1       0       8
       1       1       0       8       1       1       0       8       1       1
       0       8       1       1       0       8       1       1       0       8
       1       1       0       8       1       1       0       8       1       1
       0       8       1       1       0       8       1       1       0       8
       1       1       0       8       1       1       0       8       1       1
       0       8       1       1       0       8       1       1       0       8
       1       1       0       8       1       1       0       8       1       1
       0       8       1       1       0       8       1       1       0       8
       1       1       0       8       1       1       0       8       1       1
       0       8       1       1       0       8       1       1       0       8
       1       1       0       8       1       1       0       8       1       1
       0       8       1       1       0       8       1       1       0       8
       1       1       0       8       1       1       0       8       1       1
       0       8       1       1       0       8       1       1       0       8
       1       1       0       8       1       1       0       8       1       1
       0       8       1       1       0       8       1       1       0       8
       1       1       0       8       1       1       0       8       1       1
       0       8       1       1       0       8       1       1       0       8
       1       1       0       8       1       1       0       8       1       1
       0       8       1       1       0       8       1       1       0       8
       1       1       0       8       1       1       0       8       1       1
       0       8       1       1       0       8       1       1       0       8
       1       1       0       8       1       1       0       8       1       1
       0       8       1       1       0       8       1       1       0       8
       1       1       0       8       1       1       0       8       1       1
       0       8       1       1       0       8       1       1       0       8
       1       1       0       8       1       1       0       8       1       1
       0       8       1       1       0       8       1       1       0       8
       1       1       0       8       1       1       0       8       1       1
       0       8       1       1       0       8       1       1       0       8
       1       1       0       8       1       1       0       8       1       1
       0       8       1       1       0       8       1       1       0       8
       1       1       0       8       1       1       0       8       1       1
       0       8       1       1       0       8       1       1       0       8
       1       1       0       8       1       1       0       8       1       1
       0       8       1       1       0       8       1       1       0       8
       1       1       0       8       1       1       0       8       1       1
       0       8       1       1       0       8       1       1       0       8
       1       1       0       8       1       1       0       8       1       1
       0       8       1       1       0       8       1       1       0       8
       1       1       0       8       1       1       0       8       1       1
       0       8       1       1       0       8       1       1       0       8
       1       1       0       8       1       1       0       8       1       1
       0       8       1       1       0       8       1       1       0       8
       1       1       0       8       1       1       0       8       1       1
       0       8       1       1       0       8       1       1       0       8
       1       1       0       8       1       1       0       8       1       1
       0       8       1       1       0       8       1       1       0       8
       1       1       0       8       1       1       0       8       1       1
       0       8       1       1       0       8       1       1       0       8
       1       1       0       8       1       1       0       8       1       1
       0       8       1       1       0       8       1       1       0       8
       1       1       0       8       1       1       0       8       1       1
       0       8       1       1       0       8       1       1       0       8
       1       1       0       8       1       1       0       8       1       1
       0       8       1       1       0       8       1       1       0       8
       1       1       0       8       1       1       0       8       1       1
       0       8       1       1       0       8       1       1       0       8
       1       1       0       8       1       1       0       8       1       1
       0       8       1       1       0       8       1       1       0       8
       1       1       0       8       1       1       0       8       1       1
       0       8       1       1       0       8       1       1       0       8
       1       1       0       8       1       1       0       8       1       1
       0       8       1       1       0       8       1       1       0       8
       1       1       0       8       1       1       0       8       1       1
       0       8       1       1       0       8       1       1       0       8
       1       1       0       8       1       1       0       8       1       1
       0       8       1       1       0       8       1       1       0       8
       1       1       0       8       1       1       0       8       1       1
       0       8       1       1       0       8       1       1       0       8
       1       1       0       8       1       1       0       8       1       1
       0       8       1       1       0       8       1       1       0       8
       1       1       0       8       1       1       0       8       1       1
       0       8       1       1       0       8       1       1       0       8
       1       1       0       8       1       1       0       8       1       1
       0       8       1       1       0       8       1       1       0       8
       1       1       0       8       1       1       0       8       1       1
       0       8       1       1       0       8       1       1       0       8
       1       1       0       8       1       1       0       8       1       1
       0       8       1       1       0       8       1       1       0       8
       1       1       0       8       1       1       0       8       1       1
       0       8       1       1       0       8       1       1       0       8
       1       1       0       8       1       1       0       8       1       1
       0       8       1       1       0       8       1       1       0       8
       1       1       0       8       1       1       0       8       1       1
       0       8       1       1       0       8       1       1       0       8
       1       1       0       8       1       1       0       8       1       1
       0       8       1       1       0       8       1       1       0       8
       1       1       0       8       1       1       0       8       1       1
       0       8       1       1       0       8       1       1       0       8
       1       1       0       8       1       1       0       8       1       1
       0       8       1       1       0       8       1       1       0       8
       1       1       0       8       1       1       0       8       1       1
       0       8       1       1       0       8       1       1       0       8
       1       1       0       8       1       1       0       8       1       1
       0       8       1       1       0       8       1       1       0       8
       1       1       0       8       1       1       0       8       1       1
       0       8       1       1       0       8       1       1       0       8
       1       1       0       8       1       1       0       8       1       1
       0       8       1       1       0       8       1       1       0       8
       1       1       0       8       1       1       0       8       1       1
       0       8       1       1       0       8       1       1       0       8
       1       1       0       8       1       1       0       8       1       1
       0       8       1       1       0       8       1       1       0       8
       1       1       0       8       1       1       0       8       1       1
       0       8       1       1       0       8       1       1       0       8
       1       1       0       8       1       1       0       8       1       1
       0       8       1       1       0       8       1       1       0       8
       1       1       0       8       1       1       0       8       1       1
       0       8       1       1       0       8       1       1       0       8
       1       1       0       8       1       1       0       8       1       1
       0       8       1       1       0       8       1       1       0       8
       1       1       0       8       1       1       0       8       1       1
       0       8       1       1       0       8       1       1       0       8
       1       1       0       8       1       1       0       8       1       1
       0       8       1       1       0       8       1       1       0       8
       1       1       0       8       1       1       0       8       1       1
       0       8       1       1       0       8       1       1       0       8
       1       1       0       8       1       1       0       8       1       1
       0       8       1       1       0       8       1       1       0       8
       1       1       0       8       1       1       0       8       1       1
       0       8       1       1       0       8       1       1       0       8
       1       1       0       8       1       1       0       8       1       1
       0       8       1       1       0       8       1       1       0       8
       1       1       0       8       1       1       0       8       1       1
       0       8       1       1       0       8       1       1       0       8
       1       1       0       8       1       1       0       8       1       1
       0       8       1       1       0       8       1       1       0       8
       1       1       0       8       1       1       0       8       1       1
       0       8       1       1       0       8       1       1       0       8
       1       1       0       8       1       1       0       8       1       1
       0       8       1       1       0       8       1       1       0       8
       1       1       0       8       1       1       0       8       1       1
       0       8       1       1       0       8       1       1       0       8
       1       1       0       8       1       1       0       8       1       1
       0       8       1       1       0       8       1       1       0       8
       1       1       0       8       1       1       0       8       1       1
       0       8       1       1       0       8       1       1       0       8
       1       1       0       8       1       1       0       8       1       1
       0       8       1       1       0       8       1       1       0       8
       1       1       0       8       1       1       0       8       1       1
       0       8       1       1       0       8       1       1       0       8
       1       1       0       8       1       1       0       8       1       1
       0       8       1       1       0
%FLAG MASS                                                                      
%FORMAT(5E16.8)                                                                 
  1.40100000E+01  1.00800000E+00  1.00800000E+00  1.00800000E+00  1.20100000E+01
  1.00800000E+00  1.20100000E+01  1.00800000E+00  1.00800000E+00  1.00800000E+00
  1.20100000E+01  1.60000000E+01  1.40100000E+01  1.00800000E+00  1.20100000E+01
  1.00800000E+00  1.20100000E+01  1.00800000E+00  1.00800000E+00  1.00800000E+00
  1.20100000E+01  1.60000000E+01  1.40100000E+01  1.00800000E+00  1.20100000E+01
  1.00800000E+00  1.20100000E+01  1.00800000E+00  1.00800000E+00  1.00800000E+00
  1.20100000E+01  1.60000000E+01  1.60000000E+01  1.60000000E+01  1.00800000E+00
  1.00800000E+00  0.00000000E+00  1.60000000E+01  1.00800000E+00  1.00800000E+00
  0.00000000E+00  1.60000000E+01  1.00800000E+00  1.00800000E+00  0.00000000E+00
  1.60000000E+01  1.00800000E+00  1.00800000E+00  0.00000000E+00  1.60000000E+01
  1.00800000E+00  1.00800000E+00  0.00000000E+00  1.60000000E+01  1.00800000E+00
  1.00800000E+00  0.00000000E+00  1.60000000E+01  1.00800000E+00  1.00800000E+00
  0.00000000E+00  1.60000000E+01  1.00800000E+00  1.00800000E+00  0.00000000E+00
  1.60000000E+01  1.00800000E+00  1.00800000E+00  0.00000000E+00  1.60000000E+01
  1.00800000E+00  1.00800000E+00  0.00000000E+00  1.60000000E+01  1.00800000E+00
  1.00800000E+00  0.00000000E+00  1.60000000E+01  1.00800000E+00  1.00800000E+00
  0.00000000E+00  1.60000000E+01  1.00800000E+00  1.00800000E+00  0.00000000E+00
  1.60000000E+01  1.00800000E+00  1.00800000E+00  0.00000000E+00  1.60000000E+01
  1.00800000E+00  1.00800000E+00  0.00000000E+00  1.60000000E+01  1.00800000E+00
  1.00800000E+00  0.00000000E+00  1.60000000E+01  1.00800000E+00  1.00800000E+00
  0.00000000E+00  1.60000000E+01  1.00800000E+00  1.00800000E+00  0.00000000E+00
  1.60000000E+01  1.00800000E+00  1.00800000E+00  0.00000000E+00  1.60000000E+01
  1.00800000E+00  1.00800000E+00  0.00000000E+00  1.60000000E+01  1.00800000E+00
  1.00800000E+00  0.00000000E+00  1.60000000E+01  1.00800000E+00  1.00800000E+00
  0.00000000E+00  1.60000000E+01  1.00800000E+00  1.00800000E+00  0.00000000E+00
  1.60000000E+01  1.00800000E+00  1.00800000E+00  0.00000000E+00  1.60000000E+01
  1.00800000E+00  1.00800000E+00  0.00000000E+00  1.60000000E+01  1.00800000E+00
  1.00800000E+00  0.00000000E+00  1.60000000E+01  1.00800000E+00  1.00800000E+00
  0.00000000E+00  1.60000000E+01  1.00800000E+00  1.00800000E+00  0.00000000E+00
  1.60000000E+01  1.00800000E+00  1.00800000E+00  0.00000000E+00  1.60000000E+01
  1.00800000E+00  1.00800000E+00  0.00000000E+00  1.60000000E+01  1.00800000E+00
  1.00800000E+00  0.00000000E+00  1.60000000E+01  1.00800000E+00  1.00800000E+00
  0.00000000E+00  1.60000000E+01  1.00800000E+00  1.00800000E+00  0.00000000E+00
  1.60000000E+01  1.00800000E+00  1.00800000E+00  0.00000000E+00  1.60000000E+01
  1.00800000E+00  1.00800000E+00  0.00000000E+00  1.60000000E+01  1.00800000E+00
  1.00800000E+00  0.00000000E+00  1.60000000E+01  1.00800000E+00  1.00800000E+00
  0.00000000E+00  1.60000000E+01  1.00800000E+00  1.00800000E+00  0.00000000E+00
  1.60000000E+01  1.00800000E+00  1.00800000E+00  0.00000000E+00  1.60000000E+01
  1.00800000E+00  1.00800000E+00  0.00000000E+00  1.60000000E+01  1.00800000E+00
  1.00800000E+00  0.00000000E+00  1.60000000E+01  1.00800000E+00  1.00800000E+00
  0.00000000E+00  1.60000000E+01  1.00800000E+00  1.00800000E+00  0.00000000E+00
  1.60000000E+01  1.00800000E+00  1.00800000E+00  0.00000000E+00  1.60000000E+01
  1.00800000E+00  1.00800000E+00  0.00000000E+00  1.60000000E+01  1.00800000E+00
  1.00800000E+00  0.00000000E+00  1.60000000E+01  1.00800000E+00  1.00800000E+00
  0.00000000E+00  1.60000000E+01  1.00800000E+00  1.00800000E+00  0.00000000E+00
  1.60000000E+01  1.00800000E+00  1.00800000E+00  0.00000000E+00  1.60000000E+01
  1.00800000E+00  1.00800000E+00  0.00000000E+00  1.60000000E+01  1.00800000E+00
  1.00800000E+00  0.00000000E+00  1.60000000E+01  1.00800000E+00  1.00800000E+00
  0.00000000E+00  1.60000000E+01  1.00800000E+00  1.00800000E+00  0.00000000E+00
  1.60000000E+01  1.00800000E+00  1.00800000E+00  0.00000000E+00  1.60000000E+01
  1.00800000E+00  1.00800000E+00  0.00000000E+00  1.60000000E+01  1.00800000E+00
  1.00800000E+00  0.00000000E+00  1.60000000E+01  1.00800000E+00  1.00800000E+00
  0.00000000E+00  1.60000000E+01  1.00800000E+00  1.00800000E+00  0.00000000E+00
  1.60000000E+01  1.00800000E+00  1.00800000E+00  0.00000000E+00  1.60000000E+01
  1.00800000E+00  1.00800000E+00  0.00000000E+00  1.60000000E+01  1.00800000E+00
  1.00800000E+00  0.00000000E+00  1.60000000E+01  1.00800000E+00  1.00800000E+00
  0.00000000E+00  1.60000000E+01  1.00800000E+00  1.00800000E+00  0.00000000E+00
  1.60000000E+01  1.00800000E+00  1.00800000E+00  0.00000000E+00  1.60000000E+01
  1.00800000E+00  1.00800000E+00  0.00000000E+00  1.60000000E+01  1.00800000E+00
  1.00800000E+00  0.00000000E+00  1.60000000E+01  1.00800000E+00  1.00800000E+00
  0.00000000E+00  1.60000000E+01  1.00800000E+00  1.00800000E+00  0.00000000E+00
  1.60000000E+01  1.00800000E+00  1.00800000E+00  0.00000000E+00  1.60000000E+01
  1.00800000E+00  1.00800000E+00  0.00000000E+00  1.60000000E+01  1.00800000E+00
  1.00800000E+00  0.00000000E+00  1.60000000E+01  1.00800000E+00  1.00800000E+00
  0.00000000E+00  1.60000000E+01  1.00800000E+00  1.00800000E+00  0.00000000E+00
  1.60000000E+01  1.00800000E+00  1.00800000E+00  0.00000000E+00  1.60000000E+01
  1.00800000E+00  1.00800000E+00  0.00000000E+00  1.60000000E+01  1.00800000E+00
  1.00800000E+00  0.00000000E+00  1.60000000E+01  1.00800000E+00  1.00800000E+00
  0.00000000E+00  1.60000000E+01  1.00800000E+00  1.00800000E+00  0.00000000E+00
  1.60000000E+01  1.00800000E+00  1.00800000E+00  0.00000000E+00  1.60000000E+01
  1.00800000E+00  1.00800000E+00  0.00000000E+00  1.60000000E+01  1.00800000E+00
  1.00800000E+00  0.00000000E+00  1.60000000E+01  1.00800000E+00  1.00800000E+00
  0.00000000E+00  1.60000000E+01  1.00800000E+00  1.00800000E+00  0.00000000E+00
  1.60000000E+01  1.00800000E+00  1.00800000E+00  0.00000000E+00  1.60000000E+01
  1.00800000E+00  1.00800000E+00  0.00000000E+00  1.60000000E+01  1.00800000E+00
  1.00800000E+00  0.00000000E+00  1.60000000E+01  1.00800000E+00  1.00800000E+00
  0.00000000E+00  1.60000000E+01  1.00800000E+00  1.00800000E+00  0.00000000E+00
  1.60000000E+01  1.00800000E+00  1.00800000E+00  0.00000000E+00  1.60000000E+01
  1.00800000E+00  1.00800000E+00  0.00000000E+00  1.60000000E+01  1.00800000E+00
  1.00800000E+00  0.00000000E+00  1.60000000E+01  1.00800000E+00  1.00800000E+00
  0.00000000E+00  1.60000000E+01  1.00800000E+00  1.00800000E+00  0.00000000E+00
  1.60000000E+01  1.00800000E+00  1.00800000E+00  0.00000000E+00  1.60000000E+01
  1.00800000E+00  1.00800000E+00  0.00000000E+00  1.60000000E+01  1.00800000E+00
  1.00800000E+00  0.00000000E+00  1.60000000E+01  1.00800000E+00  1.00800000E+00
  0.00000000E+00  1.60000000E+01  1.00800000E+00  1.00800000E+00  0.00000000E+00
  1.60000000E+01  1.00800000E+00  1.00800000E+00  0.00000000E+00  1.60000000E+01
  1.00800000E+00  1.00800000E+00  0.00000000E+00  1.60000000E+01  1.00800000E+00
  1.00800000E+00  0.00000000E+00  1.60000000E+01  1.00800000E+00  1.00800000E+00
  0.00000000E+00  1.60000000E+01  1.00800000E+00  1.00800000E+00  0.00000000E+00
  1.60000000E+01  1.00800000E+00  1.00800000E+00  0.00000000E+00  1.60000000E+01
  1.00800000E+00  1.00800000E+00  0.00000000E+00  1.60000000E+01  1.00800000E+00
  1.00800000E+00  0.00000000E+00  1.60000000E+01  1.00800000E+00  1.00800000E+00
  0.00000000E+00  1.60000000E+01  1.00800000E+00  1.00800000E+00  0.00000000E+00
  1.60000000E+01  1.00800000E+00  1.00800000E+00  0.00000000E+00  1.60000000E+01
  1.00800000E+00  1.00800000E+00  0.00000000E+00  1.60000000E+01  1.00800000E+00
  1.00800000E+00  0.00000000E+00  1.60000000E+01  1.00800000E+00  1.00800000E+00
  0.00000000E+00  1.60000000E+01  1.00800000E+00  1.00800000E+00  0.00000000E+00
  1.60000000E+01  1.00800000E+00  1.00800000E+00  0.00000000E+00  1.60000000E+01
  1.00800000E+00  1.00800000E+00  0.00000000E+00  1.60000000E+01  1.00800000E+00
  1.00800000E+00  0.00000000E+00  1.60000000E+01  1.00800000E+00  1.00800000E+00
  0.00000000E+00  1.60000000E+01  1.00800000E+00  1.00800000E+00  0.00000000E+00
  1.60000000E+01  1.00800000E+00  1.00800000E+00  0.00000000E+00  1.60000000E+01
  1.00800000E+00  1.00800000E+00  0.00000000E+00  1.60000000E+01  1.00800000E+00
  1.00800000E+00  0.00000000E+00  1.60000000E+01  1.00800000E+00  1.00800000E+00
  0.00000000E+00  1.60000000E+01  1.00800000E+00  1.00800000E+00  0.00000000E+00
  1.60000000E+01  1.00800000E+00  1.00800000E+00  0.00000000E+00  1.60000000E+01
  1.00800000E+00  1.00800000E+00  0.00000000E+00  1.60000000E+01  1.00800000E+00
  1.00800000E+00  0.00000000E+00  1.60000000E+01  1.00800000E+00  1.00800000E+00
  0.00000000E+00  1.60000000E+01  1.00800000E+00  1.00800000E+00  0.00000000E+00
  1.60000000E+01  1.00800000E+00  1.00800000E+00  0.00000000E+00  1.60000000E+01
  1.00800000E+00  1.00800000E+00  0.00000000E+00  1.60000000E+01  1.00800000E+00
  1.00800000E+00  0.00000000E+00  1.60000000E+01  1.00800000E+00  1.00800000E+00
  0.00000000E+00  1.60000000E+01  1.00800000E+00  1.00800000E+00  0.00000000E+00
  1.60000000E+01  1.00800000E+00  1.00800000E+00  0.00000000E+00  1.60000000E+01
  1.00800000E+00  1.00800000E+00  0.00000000E+00  1.60000000E+01  1.00800000E+00
  1.00800000E+00  0.00000000E+00  1.60000000E+01  1.00800000E+00  1.00800000E+00
  0.00000000E+00  1.60000000E+01  1.00800000E+00  1.00800000E+00  0.00000000E+00
  1.60000000E+01  1.00800000E+00  1.00800000E+00  0.00000000E+00  1.60000000E+01
  1.00800000E+00  1.00800000E+00  0.00000000E+00  1.60000000E+01  1.00800000E+00
  1.00800000E+00  0.00000000E+00  1.60000000E+01  1.00800000E+00  1.00800000E+00
  0.00000000E+00  1.60000000E+01  1.00800000E+00  1.00800000E+00  0.00000000E+00
  1.60000000E+01  1.00800000E+00  1.00800000E+00  0.00000000E+00  1.60000000E+01
  1.00800000E+00  1.00800000E+00  0.00000000E+00  1.60000000E+01  1.00800000E+00
  1.00800000E+00  0.00000000E+00  1.60000000E+01  1.00800000E+00  1.00800000E+00
  0.00000000E+00  1.60000000E+01  1.00800000E+00  1.00800000E+00  0.00000000E+00
  1.60000000E+01  1.00800000E+00  1.00800000E+00  0.00000000E+00  1.60000000E+01
  1.00800000E+00  1.00800000E+00  0.00000000E+00  1.60000000E+01  1.00800000E+00
  1.00800000E+00  0.00000000E+00  1.60000000E+01  1.00800000E+00  1.00800000E+00
  0.00000000E+00  1.60000000E+01  1.00800000E+00  1.00800000E+00  0.00000000E+00
  1.60000000E+01  1.00800000E+00  1.00800000E+00  0.00000000E+00  1.60000000E+01
  1.00800000E+00  1.00800000E+00  0.00000000E+00  1.60000000E+01  1.00800000E+00
  1.00800000E+00  0.00000000E+00  1.60000000E+01  1.00800000E+00  1.00800000E+00
  0.00000000E+00  1.60000000E+01  1.00800000E+00  1.00800000E+00  0.00000000E+00
  1.60000000E+01  1.00800000E+00  1.00800000E+00  0.00000000E+00  1.60000000E+01
  1.00800000E+00  1.00800000E+00  0.00000000E+00  1.60000000E+01  1.00800000E+00
  1.00800000E+00  0.00000000E+00  1.60000000E+01  1.00800000E+00  1.00800000E+00
  0.00000000E+00  1.60000000E+01  1.00800000E+00  1.00800000E+00  0.00000000E+00
  1.60000000E+01  1.00800000E+00  1.00800000E+00  0.00000000E+00  1.60000000E+01
  1.00800000E+00  1.00800000E+00  0.00000000E+00  1.60000000E+01  1.00800000E+00
  1.00800000E+00  0.00000000E+00  1.60000000E+01  1.00800000E+00  1.00800000E+00
  0.00000000E+00  1.60000000E+01  1.00800000E+00  1.00800000E+00  0.00000000E+00
  1.60000000E+01  1.00800000E+00  1.00800000E+00  0.00000000E+00  1.60000000E+01
  1.00800000E+00  1.00800000E+00  0.00000000E+00  1.60000000E+01  1.00800000E+00
  1.00800000E+00  0.00000000E+00  1.60000000E+01  1.00800000E+00  1.00800000E+00
  0.00000000E+00  1.60000000E+01  1.00800000E+00  1.00800000E+00  0.00000000E+00
  1.60000000E+01  1.00800000E+00  1.00800000E+00  0.00000000E+00  1.60000000E+01
  1.00800000E+00  1.00800000E+00  0.00000000E+00  1.60000000E+01  1.00800000E+00
  1.00800000E+00  0.00000000E+00  1.60000000E+01  1.00800000E+00  1.00800000E+00
  0.00000000E+00  1.60000000E+01  1.00800000E+00  1.00800000E+00  0.00000000E+00
  1.60000000E+01  1.00800000E+00  1.00800000E+00  0.00000000E+00  1.60000000E+01
  1.00800000E+00  1.00800000E+00  0.00000000E+00  1.60000000E+01  1.00800000E+00
  1.00800000E+00  0.00000000E+00  1.60000000E+01  1.00800000E+00  1.00800000E+00
  0.00000000E+00  1.60000000E+01  1.00800000E+00  1.00800000E+00  0.00000000E+00
  1.60000000E+01  1.00800000E+00  1.00800000E+00  0.00000000E+00  1.60000000E+01
  1.00800000E+00  1.00800000E+00  0.00000000E+00  1.60000000E+01  1.00800000E+00
  1.00800000E+00  0.00000000E+00  1.60000000E+01  1.00800000E+00  1.00800000E+00
  0.00000000E+00  1.60000000E+01  1.00800000E+00  1.00800000E+00  0.00000000E+00
  1.60000000E+01  1.00800000E+00  1.00800000E+00  0.00000000E+00  1.60000000E+01
  1.00800000E+00  1.00800000E+00  0.00000000E+00  1.60000000E+01  1.00800000E+00
  1.00800000E+00  0.00000000E+00  1.60000000E+01  1.00800000E+00  1.00800000E+00
  0.00000000E+00  1.60000000E+01  1.00800000E+00  1.00800000E+00  0.00000000E+00
  1.60000000E+01  1.00800000E+00  1.00800000E+00  0.00000000E+00  1.60000000E+01
  1.00800000E+00  1.00800000E+00  0.00000000E+00  1.60000000E+01  1.00800000E+00
  1.00800000E+00  0.00000000E+00  1.60000000E+01  1.00800000E+00  1.00800000E+00
  0.00000000E+00  1.60000000E+01  1.00800000E+00  1.00800000E+00  0.00000000E+00
  1.60000000E+01  1.00800000E+00  1.00800000E+00  0.00000000E+00  1.60000000E+01
  1.00800000E+00  1.00800000E+00  0.00000000E+00  1.60000000E+01  1.00800000E+00
  1.00800000E+00  0.00000000E+00  1.60000000E+01  1.00800000E+00  1.00800000E+00
  0.00000000E+00  1.60000000E+01  1.00800000E+00  1.00800000E+00  0.00000000E+00
  1.60000000E+01  1.00800000E+00  1.00800000E+00  0.00000000E+00  1.60000000E+01
  1.00800000E+00  1.00800000E+00  0.00000000E+00  1.60000000E+01  1.00800000E+00
  1.00800000E+00  0.00000000E+00  1.60000000E+01  1.00800000E+00  1.00800000E+00
  0.00000000E+00  1.60000000E+01  1.00800000E+00  1.00800000E+00  0.00000000E+00
  1.60000000E+01  1.00800000E+00  1.00800000E+00  0.00000000E+00  1.60000000E+01
  1.00800000E+00  1.00800000E+00  0.00000000E+00  1.60000000E+01  1.00800000E+00
  1.00800000E+00  0.00000000E+00  1.60000000E+01  1.00800000E+00  1.00800000E+00
  0.00000000E+00  1.60000000E+01  1.00800000E+00  1.00800000E+00  0.00000000E+00
  1.60000000E+01  1.00800000E+00  1.00800000E+00  0.00000000E+00  1.60000000E+01
  1.00800000E+00  1.00800000E+00  0.00000000E+00  1.60000000E+01  1.00800000E+00
  1.00800000E+00  0.00000000E+00  1.60000000E+01  1.00800000E+00  1.00800000E+00
  0.00000000E+00  1.60000000E+01  1.00800000E+00  1.00800000E+00  0.00000000E+00
  1.60000000E+01  1.00800000E+00  1.00800000E+00  0.00000000E+00  1.60000000E+01
  1.00800000E+00  1.00800000E+00  0.00000000E+00  1.60000000E+01  1.00800000E+00
  1.00800000E+00  0.00000000E+00  1.60000000E+01  1.00800000E+00  1.00800000E+00
  0.00000000E+00  1.60000000E+01  1.00800000E+00  1.00800000E+00  0.00000000E+00
  1.60000000E+01  1.00800000E+00  1.00800000E+00  0.00000000E+00  1.60000000E+01
  1.00800000E+00  1.00800000E+00  0.00000000E+00  1.60000000E+01  1.00800000E+00
  1.00800000E+00  0.00000000E+00  1.60000000E+01  1.00800000E+00  1.00800000E+00
  0.00000000E+00  1.60000000E+01  1.00800000E+00  1.00800000E+00  0.00000000E+00
  1.60000000E+01  1.00800000E+00  1.00800000E+00  0.00000000E+00  1.60000000E+01
  1.00800000E+00  1.00800000E+00  0.00000000E+00  1.60000000E+01  1.00800000E+00
  1.00800000E+00  0.00000000E+00  1.60000000E+01  1.00800000E+00  1.00800000E+00
  0.00000000E+00  1.60000000E+01  1.00800000E+00  1.00800000E+00  0.00000000E+00
  1.60000000E+01  1.00800000E+00  1.00800000E+00  0.00000000E+00  1.60000000E+01
  1.00800000E+00  1.00800000E+00  0.00000000E+00  1.60000000E+01  1.00800000E+00
  1.00800000E+00  0.00000000E+00  1.60000000E+01  1.00800000E+00  1.00800000E+00
  0.00000000E+00  1.60000000E+01  1.00800000E+00  1.00800000E+00  0.00000000E+00
  1.60000000E+01  1.00800000E+00  1.00800000E+00  0.00000000E+00  1.60000000E+01
  1.00800000E+00  1.00800000E+00  0.00000000E+00  1.60000000E+01  1.00800000E+00
  1.00800000E+00  0.00000000E+00  1.60000000E+01  1.00800000E+00  1.00800000E+00
  0.00000000E+00  1.60000000E+01  1.00800000E+00  1.00800000E+00  0.00000000E+00
  1.60000000E+01  1.00800000E+00  1.00800000E+00  0.00000000E+00  1.60000000E+01
  1.00800000E+00  1.00800000E+00  0.00000000E+00  1.60000000E+01  1.00800000E+00
  1.00800000E+00  0.00000000E+00  1.60000000E+01  1.00800000E+00  1.00800000E+00
  0.00000000E+00  1.60000000E+01  1.00800000E+00  1.00800000E+00  0.00000000E+00
  1.60000000E+01  1.00800000E+00  1.00800000E+00  0.00000000E+00  1.60000000E+01
  1.00800000E+00  1.00800000E+00  0.00000000E+00  1.60000000E+01  1.00800000E+00
  1.00800000E+00  0.00000000E+00  1.60000000E+01  1.00800000E+00  1.00800000E+00
  0.00000000E+00  1.60000000E+01  1.00800000E+00  1.00800000E+00  0.00000000E+00
  1.60000000E+01  1.00800000E+00  1.00800000E+00  0.00000000E+00  1.60000000E+01
  1.00800000E+00  1.00800000E+00  0.00000000E+00  1.60000000E+01  1.00800000E+00
  1.00800000E+00  0.00000000E+00  1.60000000E+01  1.00800000E+00  1.00800000E+00
  0.00000000E+00  1.60000000E+01  1.00800000E+00  1.00800000E+00  0.00000000E+00
  1.60000000E+01  1.00800000E+00  1.00800000E+00  0.00000000E+00  1.60000000E+01
  1.00800000E+00  1.00800000E+00  0.00000000E+00  1.60000000E+01  1.00800000E+00
  1.00800000E+00  0.00000000E+00  1.60000000E+01  1.00800000E+00  1.00800000E+00
  0.00000000E+00  1.60000000E+01  1.00800000E+00  1.00800000E+00  0.00000000E+00
  1.60000000E+01  1.00800000E+00  1.00800000E+00  0.00000000E+00  1.60000000E+01
  1.00800000E+00  1.00800000E+00  0.00000000E+00  1.60000000E+01  1.00800000E+00
  1.00800000E+00  0.00000000E+00  1.60000000E+01  1.00800000E+00  1.00800000E+00
  0.00000000E+00  1.60000000E+01  1.00800000E+00  1.00800000E+00  0.00000000E+00
  1.60000000E+01  1.00800000E+00  1.00800000E+00  0.00000000E+00  1.60000000E+01
  1.00800000E+00  1.00800000E+00  0.00000000E+00  1.60000000E+01  1.00800000E+00
  1.00800000E+00  0.00000000E+00  1.60000000E+01  1.00800000E+00  1.00800000E+00
  0.00000000E+00  1.60000000E+01  1.00800000E+00  1.00800000E+00  0.00000000E+00
  1.60000000E+01  1.00800000E+00  1.00800000E+00  0.00000000E+00  1.60000000E+01
  1.00800000E+00  1.00800000E+00  0.00000000E+00  1.60000000E+01  1.00800000E+00
  1.00800000E+00  0.00000000E+00  1.60000000E+01  1.00800000E+00  1.00800000E+00
  0.00000000E+00  1.60000000E+01  1.00800000E+00  1.00800000E+00  0.00000000E+00
  1.60000000E+01  1.00800000E+00  1.00800000E+00  0.00000000E+00  1.60000000E+01
  1.00800000E+00  1.00800000E+00  0.00000000E+00  1.60000000E+01  1.00800000E+00
  1.00800000E+00  0.00000000E+00  1.60000000E+01  1.00800000E+00  1.00800000E+00
  0.00000000E+00  1.60000000E+01  1.00800000E+00  1.00800000E+00  0.00000000E+00
  1.60000000E+01  1.00800000E+00  1.00800000E+00  0.00000000E+00  1.60000000E+01
  1.00800000E+00  1.00800000E+00  0.00000000E+00  1.60000000E+01  1.00800000E+00
  1.00800000E+00  0.00000000E+00  1.60000000E+01  1.00800000E+00  1.00800000E+00
  0.00000000E+00  1.60000000E+01  1.00800000E+00  1.00800000E+00  0.00000000E+00
  1.60000000E+01  1.00800000E+00  1.00800000E+00  0.00000000E+00  1.60000000E+01
  1.00800000E+00  1.00800000E+00  0.00000000E+00  1.60000000E+01  1.00800000E+00
  1.00800000E+00  0.00000000E+00  1.60000000E+01  1.00800000E+00  1.00800000E+00
  0.00000000E+00  1.60000000E+01  1.00800000E+00  1.00800000E+00  0.00000000E+00
  1.60000000E+01  1.00800000E+00  1.00800000E+00  0.00000000E+00  1.60000000E+01
  1.00800000E+00  1.00800000E+00  0.00000000E+00  1.60000000E+01  1.00800000E+00
  1.00800000E+00  0.00000000E+00  1.60000000E+01  1.00800000E+00  1.00800000E+00
  0.00000000E+00  1.60000000E+01  1.00800000E+00  1.00800000E+00  0.00000000E+00
  1.60000000E+01  1.00800000E+00  1.00800000E+00  0.00000000E+00  1.60000000E+01
  1.00800000E+00  1.00800000E+00  0.00000000E+00  1.60000000E+01  1.00800000E+00
  1.00800000E+00  0.00000000E+00  1.60000000E+01  1.00800000E+00  1.00800000E+00
  0.00000000E+00  1.60000000E+01  1.00800000E+00  1.00800000E+00  0.00000000E+00
  1.60000000E+01  1.00800000E+00  1.00800000E+00  0.00000000E+00  1.60000000E+01
  1.00800000E+00  1.00800000E+00  0.00000000E+00  1.60000000E+01  1.00800000E+00
  1.00800000E+00  0.00000000E+00  1.60000000E+01  1.00800000E+00  1.00800000E+00
  0.00000000E+00  1.60000000E+01  1.00800000E+00  1.00800000E+00  0.00000000E+00
  1.60000000E+01  1.00800000E+00  1.00800000E+00  0.00000000E+00  1.60000000E+01
  1.00800000E+00  1.00800000E+00  0.00000000E+00  1.60000000E+01  1.00800000E+00
  1.00800000E+00  0.00000000E+00  1.60000000E+01  1.00800000E+00  1.00800000E+00
  0.00000000E+00  1.60000000E+01  1.00800000E+00  1.00800000E+00  0.00000000E+00
  1.60000000E+01  1.00800000E+00  1.00800000E+00  0.00000000E+00  1.60000000E+01
  1.00800000E+00  1.00800000E+00  0.00000000E+00  1.60000000E+01  1.00800000E+00
  1.00800000E+00  0.00000000E+00  1.60000000E+01  1.00800000E+00  1.00800000E+00
  0.00000000E+00  1.60000000E+01  1.00800000E+00  1.00800000E+00  0.00000000E+00
  1.60000000E+01  1.00800000E+00  1.00800000E+00  0.00000000E+00  1.60000000E+01
  1.00800000E+00  1.00800000E+00  0.00000000E+00  1.60000000E+01  1.00800000E+00
  1.00800000E+00  0.00000000E+00  1.60000000E+01  1.00800000E+00  1.00800000E+00
  0.00000000E+00  1.60000000E+01  1.00800000E+00  1.00800000E+00  0.00000000E+00
  1.60000000E+01  1.00800000E+00  1.00800000E+00  0.00000000E+00  1.60000000E+01
  1.00800000E+00  1.00800000E+00  0.00000000E+00  1.60000000E+01  1.00800000E+00
  1.00800000E+00  0.00000000E+00  1.60000000E+01  1.00800000E+00  1.00800000E+00
  0.00000000E+00  1.60000000E+01  1.00800000E+00  1.00800000E+00  0.00000000E+00
  1.60000000E+01  1.00800000E+00  1.00800000E+00  0.00000000E+00  1.60000000E+01
  1.00800000E+00  1.00800000E+00  0.00000000E+00  1.60000000E+01  1.00800000E+00
  1.00800000E+00  0.00000000E+00  1.60000000E+01  1.00800000E+00  1.00800000E+00
  0.00000000E+00  1.60000000E+01  1.00800000E+00  1.00800000E+00  0.00000000E+00
  1.60000000E+01  1.00800000E+00  1.00800000E+00  0.00000000E+00  1.60000000E+01
  1.00800000E+00  1.00800000E+00  0.00000000E+00  1.60000000E+01  1.00800000E+00
  1.00800000E+00  0.00000000E+00  1.60000000E+01  1.00800000E+00  1.00800000E+00
  0.00000000E+00  1.60000000E+01  1.00800000E+00  1.00800000E+00  0.00000000E+00
  1.60000000E+01  1.00800000E+00  1.00800000E+00  0.00000000E+00  1.60000000E+01
  1.00800000E+00  1.00800000E+00  0.00000000E+00  1.60000000E+01  1.00800000E+00
  1.00800000E+00  0.00000000E+00  1.60000000E+01  1.00800000E+00  1.00800000E+00
  0.00000000E+00  1.60000000E+01  1.00800000E+00  1.00800000E+00  0.00000000E+00
  1.60000000E+01  1.00800000E+00  1.00800000E+00  0.00000000E+00  1.60000000E+01
  1.00800000E+00  1.00800000E+00  0.00000000E+00  1.60000000E+01  1.00800000E+00
  1.00800000E+00  0.00000000E+00  1.60000000E+01  1.00800000E+00  1.00800000E+00
  0.00000000E+00  1.60000000E+01  1.00800000E+00  1.00800000E+00  0.00000000E+00
  1.60000000E+01  1.00800000E+00  1.00800000E+00  0.00000000E+00  1.60000000E+01
  1.00800000E+00  1.00800000E+00  0.00000000E+00  1.60000000E+01  1.00800000E+00
  1.00800000E+00  0.00000000E+00  1.60000000E+01  1.00800000E+00  1.00800000E+00
  0.00000000E+00  1.60000000E+01  1.00800000E+00  1.00800000E+00  0.00000000E+00
  1.60000000E+01  1.00800000E+00  1.00800000E+00  0.00000000E+00  1.60000000E+01
  1.00800000E+00  1.00800000E+00  0.00000000E+00  1.60000000E+01  1.00800000E+00
  1.00800000E+00  0.00000000E+00  1.60000000E+01  1.00800000E+00  1.00800000E+00
  0.00000000E+00  1.60000000E+01  1.00800000E+00  1.00800000E+00  0.00000000E+00
  1.60000000E+01  1.00800000E+00  1.00800000E+00  0.00000000E+00  1.60000000E+01
  1.00800000E+00  1.00800000E+00  0.00000000E+00  1.60000000E+01  1.00800000E+00
  1.00800000E+00  0.00000000E+00  1.60000000E+01  1.00800000E+00  1.00800000E+00
  0.00000000E+00  1.60000000E+01  1.00800000E+00  1.00800000E+00  0.00000000E+00
  1.60000000E+01  1.00800000E+00  1.00800000E+00  0.00000000E+00  1.60000000E+01
  1.00800000E+00  1.00800000E+00  0.00000000E+00  1.60000000E+01  1.00800000E+00
  1.00800000E+00  0.00000000E+00  1.60000000E+01  1.00800000E+00  1.00800000E+00
  0.00000000E+00  1.60000000E+01  1.00800000E+00  1.00800000E+00  0.00000000E+00
  1.60000000E+01  1.00800000E+00  1.00800000E+00  0.00000000E+00  1.60000000E+01
  1.00800000E+00  1.00800000E+00  0.00000000E+00  1.60000000E+01  1.00800000E+00
  1.00800000E+00  0.00000000E+00  1.60000000E+01  1.00800000E+00  1.00800000E+00
  0.00000000E+00  1.60000000E+01  1.00800000E+00  1.00800000E+00  0.00000000E+00
  1.60000000E+01  1.00800000E+00  1.00800000E+00  0.00000000E+00  1.60000000E+01
  1.00800000E+00  1.00800000E+00  0.00000000E+00  1.60000000E+01  1.00800000E+00
  1.00800000E+00  0.00000000E+00  1.60000000E+01  1.00800000E+00  1.00800000E+00
  0.00000000E+00  1.60000000E+01  1.00800000E+00  1.00800000E+00  0.00000000E+00
  1.60000000E+01  1.00800000E+00  1.00800000E+00  0.00000000E+00  1.60000000E+01
  1.00800000E+00  1.00800000E+00  0.00000000E+00  1.60000000E+01  1.00800000E+00
  1.00800000E+00  0.00000000E+00  1.60000000E+01  1.00800000E+00  1.00800000E+00
  0.00000000E+00  1.60000000E+01  1.00800000E+00  1.00800000E+00  0.00000000E+00
  1.60000000E+01  1.00800000E+00  1.00800000E+00  0.00000000E+00  1.60000000E+01
  1.00800000E+00  1.00800000E+00  0.00000000E+00  1.60000000E+01  1.00800000E+00
  1.00800000E+00  0.00000000E+00  1.60000000E+01  1.00800000E+00  1.00800000E+00
  0.00000000E+00  1.60000000E+01  1.00800000E+00  1.00800000E+00  0.00000000E+00
  1.60000000E+01  1.00800000E+00  1.00800000E+00  0.00000000E+00  1.60000000E+01
  1.00800000E+00  1.00800000E+00  0.00000000E+00  1.60000000E+01  1.00800000E+00
  1.00800000E+00  0.00000000E+00  1.60000000E+01  1.00800000E+00  1.00800000E+00
  0.00000000E+00  1.60000000E+01  1.00800000E+00  1.00800000E+00  0.00000000E+00
  1.60000000E+01  1.00800000E+00  1.00800000E+00  0.00000000E+00  1.60000000E+01
  1.00800000E+00  1.00800000E+00  0.00000000E+00  1.60000000E+01  1.00800000E+00
  1.00800000E+00  0.00000000E+00  1.60000000E+01  1.00800000E+00  1.00800000E+00
  0.00000000E+00  1.60000000E+01  1.00800000E+00  1.00800000E+00  0.00000000E+00
  1.60000000E+01  1.00800000E+00  1.00800000E+00  0.00000000E+00  1.60000000E+01
  1.00800000E+00  1.00800000E+00  0.00000000E+00  1.60000000E+01  1.00800000E+00
  1.00800000E+00  0.00000000E+00  1.60000000E+01  1.00800000E+00  1.00800000E+00
  0.00000000E+00  1.60000000E+01  1.00800000E+00  1.00800000E+00  0.00000000E+00
  1.60000000E+01  1.00800000E+00  1.00800000E+00  0.00000000E+00  1.60000000E+01
  1.00800000E+00  1.00800000E+00  0.00000000E+00  1.60000000E+01  1.00800000E+00
  1.00800000E+00  0.00000000E+00  1.60000000E+01  1.00800000E+00  1.00800000E+00
  0.00000000E+00  1.60000000E+01  1.00800000E+00  1.00800000E+00  0.00000000E+00
  1.60000000E+01  1.00800000E+00  1.00800000E+00  0.00000000E+00  1.60000000E+01
  1.00800000E+00  1.00800000E+00  0.00000000E+00  1.60000000E+01  1.00800000E+00
  1.00800000E+00  0.00000000E+00  1.60000000E+01  1.00800000E+00  1.00800000E+00
  0.00000000E+00  1.60000000E+01  1.00800000E+00  1.00800000E+00  0.00000000E+00
  1.60000000E+01  1.00800000E+00  1.00800000E+00  0.00000000E+00  1.60000000E+01
  1.00800000E+00  1.00800000E+00  0.00000000E+00  1.60000000E+01  1.00800000E+00
  1.00800000E+00  0.00000000E+00  1.60000000E+01  1.00800000E+00  1.00800000E+00
  0.00000000E+00  1.60000000E+01  1.00800000E+00  1.00800000E+00  0.00000000E+00
  1.60000000E+01  1.00800000E+00  1.00800000E+00  0.00000000E+00  1.60000000E+01
  1.00800000E+00  1.00800000E+00  0.00000000E+00  1.60000000E+01  1.00800000E+00
  1.00800000E+00  0.00000000E+00  1.60000000E+01  1.00800000E+00  1.00800000E+00
  0.00000000E+00  1.60000000E+01  1.00800000E+00  1.00800000E+00  0.00000000E+00
  1.60000000E+01  1.00800000E+00  1.00800000E+00  0.00000000E+00  1.60000000E+01
  1.00800000E+00  1.00800000E+00  0.00000000E+00  1.60000000E+01  1.00800000E+00
  1.00800000E+00  0.00000000E+00  1.60000000E+01  1.00800000E+00  1.00800000E+00
  0.00000000E+00  1.60000000E+01  1.00800000E+00  1.00800000E+00  0.00000000E+00
  1.60000000E+01  1.00800000E+00  1.00800000E+00  0.00000000E+00  1.60000000E+01
  1.00800000E+00  1.00800000E+00  0.00000000E+00  1.60000000E+01  1.00800000E+00
  1.00800000E+00  0.00000000E+00  1.60000000E+01  1.00800000E+00  1.00800000E+00
  0.00000000E+00  1.60000000E+01  1.00800000E+00  1.00800000E+00  0.00000000E+00
  1.60000000E+01  1.00800000E+00  1.00800000E+00  0.00000000E+00  1.60000000E+01
  1.00800000E+00  1.00800000E+00  0.00000000E+00  1.60000000E+01  1.00800000E+00
  1.00800000E+00  0.00000000E+00  1.60000000E+01  1.00800000E+00  1.00800000E+00
  0.00000000E+00  1.60000000E+01  1.00800000E+00  1.00800000E+00  0.00000000E+00
  1.60000000E+01  1.00800000E+00  1.00800000E+00  0.00000000E+00  1.60000000E+01
  1.00800000E+00  1.00800000E+00  0.00000000E+00  1.60000000E+01  1.00800000E+00
  1.00800000E+00  0.00000000E+00  1.60000000E+01  1.00800000E+00  1.00800000E+00
  0.00000000E+00  1.60000000E+01  1.00800000E+00  1.00800000E+00  0.00000000E+00
  1.60000000E+01  1.00800000E+00  1.00800000E+00  0.00000000E+00  1.60000000E+01
  1.00800000E+00  1.00800000E+00  0.00000000E+00  1.60000000E+01  1.00800000E+00
  1.00800000E+00  0.00000000E+00  1.60000000E+01  1.00800000E+00  1.00800000E+00
  0.00000000E+00  1.60000000E+01  1.00800000E+00  1.00800000E+00  0.00000000E+00
  1.60000000E+01  1.00800000E+00  1.00800000E+00  0.00000000E+00  1.60000000E+01
  1.00800000E+00  1.00800000E+00  0.00000000E+00  1.60000000E+01  1.00800000E+00
  1.00800000E+00  0.00000000E+00  1.60000000E+01  1.00800000E+00  1.00800000E+00
  0.00000000E+00  1.60000000E+01  1.00800000E+00  1.00800000E+00  0.00000000E+00
  1.60000000E+01  1.00800000E+00  1.00800000E+00  0.00000000E+00  1.60000000E+01
  1.00800000E+00  1.00800000E+00  0.00000000E+00  1.60000000E+01  1.00800000E+00
  1.00800000E+00  0.00000000E+00  1.60000000E+01  1.00800000E+00  1.00800000E+00
  0.00000000E+00  1.60000000E+01  1.00800000E+00  1.00800000E+00  0.00000000E+00
  1.60000000E+01  1.00800000E+00  1.00800000E+00  0.00000000E+00  1.60000000E+01
  1.00800000E+00  1.00800000E+00  0.00000000E+00  1.60000000E+01  1.00800000E+00
  1.00800000E+00  0.00000000E+00  1.60000000E+01  1.00800000E+00  1.00800000E+00
  0.00000000E+00  1.60000000E+01  1.00800000E+00  1.00800000E+00  0.00000000E+00
  1.60000000E+01  1.00800000E+00  1.00800000E+00  0.00000000E+00  1.60000000E+01
  1.00800000E+00  1.00800000E+00  0.00000000E+00  1.60000000E+01  1.00800000E+00
  1.00800000E+00  0.00000000E+00  1.60000000E+01  1.00800000E+00  1.00800000E+00
  0.00000000E+00  1.60000000E+01  1.00800000E+00  1.00800000E+00  0.00000000E+00
  1.60000000E+01  1.00800000E+00  1.00800000E+00  0.00000000E+00  1.60000000E+01
  1.00800000E+00  1.00800000E+00  0.00000000E+00  1.60000000E+01  1.00800000E+00
  1.00800000E+00  0.00000000E+00  1.60000000E+01  1.00800000E+00  1.00800000E+00
  0.00000000E+00  1.60000000E+01  1.00800000E+00  1.00800000E+00  0.00000000E+00
  1.60000000E+01  1.00800000E+00  1.00800000E+00  0.00000000E+00  1.60000000E+01
  1.00800000E+00  1.00800000E+00  0.00000000E+00  1.60000000E+01  1.00800000E+00
  1.00800000E+00  0.00000000E+00  1.60000000E+01  1.00800000E+00  1.00800000E+00
  0.00000000E+00  1.60000000E+01  1.00800000E+00  1.00800000E+00  0.00000000E+00
  1.60000000E+01  1.00800000E+00  1.00800000E+00  0.00000000E+00  1.60000000E+01
  1.00800000E+00  1.00800000E+00  0.00000000E+00  1.60000000E+01  1.00800000E+00
  1.00800000E+00  0.00000000E+00  1.60000000E+01  1.00800000E+00  1.00800000E+00
  0.00000000E+00  1.60000000E+01  1.00800000E+00  1.00800000E+00  0.00000000E+00
  1.60000000E+01  1.00800000E+00  1.00800000E+00  0.00000000E+00  1.60000000E+01
  1.00800000E+00  1.00800000E+00  0.00000000E+00  1.60000000E+01  1.00800000E+00
  1.00800000E+00  0.00000000E+00  1.60000000E+01  1.00800000E+00  1.00800000E+00
  0.00000000E+00  1.60000000E+01  1.00800000E+00  1.00800000E+00  0.00000000E+00
  1.60000000E+01  1.00800000E+00  1.00800000E+00  0.00000000E+00  1.60000000E+01
  1.00800000E+00  1.00800000E+00  0.00000000E+00  1.60000000E+01  1.00800000E+00
  1.00800000E+00  0.00000000E+00  1.60000000E+01  1.00800000E+00  1.00800000E+00
  0.00000000E+00  1.60000000E+01  1.00800000E+00  1.00800000E+00  0.00000000E+00
  1.60000000E+01  1.00800000E+00  1.00800000E+00  0.00000000E+00  1.60000000E+01
  1.00800000E+00  1.00800000E+00  0.00000000E+00  1.60000000E+01  1.00800000E+00
  1.00800000E+00  0.00000000E+00  1.60000000E+01  1.00800000E+00  1.00800000E+00
  0.00000000E+00  1.60000000E+01  1.00800000E+00  1.00800000E+00  0.00000000E+00
  1.60000000E+01  1.00800000E+00  1.00800000E+00  0.00000000E+00  1.60000000E+01
  1.00800000E+00  1.00800000E+00  0.00000000E+00  1.60000000E+01  1.00800000E+00
  1.00800000E+00  0.00000000E+00  1.60000000E+01  1.00800000E+00  1.00800000E+00
  0.00000000E+00  1.60000000E+01  1.00800000E+00  1.00800000E+00  0.00000000E+00
  1.60000000E+01  1.00800000E+00  1.00800000E+00  0.00000000E+00  1.60000000E+01
  1.00800000E+00  1.00800000E+00  0.00000000E+00  1.60000000E+01  1.00800000E+00
  1.00800000E+00  0.00000000E+00  1.60000000E+01  1.00800000E+00  1.00800000E+00
  0.00000000E+00  1.60000000E+01  1.00800000E+00  1.00800000E+00  0.00000000E+00
  1.60000000E+01  1.00800000E+00  1.00800000E+00  0.00000000E+00  1.60000000E+01
  1.00800000E+00  1.00800000E+00  0.00000000E+00  1.60000000E+01  1.00800000E+00
  1.00800000E+00  0.00000000E+00  1.60000000E+01  1.00800000E+00  1.00800000E+00
  0.00000000E+00  1.60000000E+01  1.00800000E+00  1.00800000E+00  0.00000000E+00
  1.60000000E+01  1.00800000E+00  1.00800000E+00  0.00000000E+00  1.60000000E+01
  1.00800000E+00  1.00800000E+00  0.00000000E+00  1.60000000E+01  1.00800000E+00
  1.00800000E+00  0.00000000E+00  1.60000000E+01  1.00800000E+00  1.00800000E+00
  0.00000000E+00  1.60000000E+01  1.00800000E+00  1.00800000E+00  0.00000000E+00
  1.60000000E+01  1.00800000E+00  1.00800000E+00  0.00000000E+00  1.60000000E+01
  1.00800000E+00  1.00800000E+00  0.00000000E+00  1.60000000E+01  1.00800000E+00
  1.00800000E+00  0.00000000E+00  1.60000000E+01  1.00800000E+00  1.00800000E+00
  0.00000000E+00  1.60000000E+01  1.00800000E+00  1.00800000E+00  0.00000000E+00
  1.60000000E+01  1.00800000E+00  1.00800000E+00  0.00000000E+00  1.60000000E+01
  1.00800000E+00  1.00800000E+00  0.00000000E+00  1.60000000E+01  1.00800000E+00
  1.00800000E+00  0.00000000E+00  1.60000000E+01  1.00800000E+00  1.00800000E+00
  0.00000000E+00  1.60000000E+01  1.00800000E+00  1.00800000E+00  0.00000000E+00
  1.60000000E+01  1.00800000E+00  1.00800000E+00  0.00000000E+00  1.60000000E+01
  1.00800000E+00  1.00800000E+00  0.00000000E+00  1.60000000E+01  1.00800000E+00
  1.00800000E+00  0.00000000E+00  1.60000000E+01  1.00800000E+00  1.00800000E+00
  0.00000000E+00  1.60000000E+01  1.00800000E+00  1.00800000E+00  0.00000000E+00
  1.60000000E+01  1.00800000E+00  1.00800000E+00  0.00000000E+00  1.60000000E+01
  1.00800000E+00  1.00800000E+00  0.00000000E+00  1.60000000E+01  1.00800000E+00
  1.00800000E+00  0.00000000E+00  1.60000000E+01  1.00800000E+00  1.00800000E+00
  0.00000000E+00  1.60000000E+01  1.00800000E+00  1.00800000E+00  0.00000000E+00
  1.60000000E+01  1.00800000E+00  1.00800000E+00  0.00000000E+00  1.60000000E+01
  1.00800000E+00  1.00800000E+00  0.00000000E+00  1.60000000E+01  1.00800000E+00
  1.00800000E+00  0.00000000E+00  1.60000000E+01  1.00800000E+00  1.00800000E+00
  0.00000000E+00  1.60000000E+01  1.00800000E+00  1.00800000E+00  0.00000000E+00
  1.60000000E+01  1.00800000E+00  1.00800000E+00  0.00000000E+00  1.60000000E+01
  1.00800000E+00  1.00800000E+00  0.00000000E+00  1.60000000E+01  1.00800000E+00
  1.00800000E+00  0.00000000E+00  1.60000000E+01  1.00800000E+00  1.00800000E+00
  0.00000000E+00  1.60000000E+01  1.00800000E+00  1.00800000E+00  0.00000000E+00
  1.60000000E+01  1.00800000E+00  1.00800000E+00  0.00000000E+00  1.60000000E+01
  1.00800000E+00  1.00800000E+00  0.00000000E+00  1.60000000E+01  1.00800000E+00
  1.00800000E+00  0.00000000E+00  1.60000000E+01  1.00800000E+00  1.00800000E+00
  0.00000000E+00  1.60000000E+01  1.00800000E+00  1.00800000E+00  0.00000000E+00
  1.60000000E+01  1.00800000E+00  1.00800000E+00  0.00000000E+00  1.60000000E+01
  1.00800000E+00  1.00800000E+00  0.00000000E+00  1.60000000E+01  1.00800000E+00
  1.00800000E+00  0.00000000E+00  1.60000000E+01  1.00800000E+00  1.00800000E+00
  0.00000000E+00  1.60000000E+01  1.00800000E+00  1.00800000E+00  0.00000000E+00
  1.60000000E+01  1.00800000E+00  1.00800000E+00  0.00000000E+00  1.60000000E+01
  1.00800000E+00  1.00800000E+00  0.00000000E+00  1.60000000E+01  1.00800000E+00
  1.00800000E+00  0.00000000E+00  1.60000000E+01  1.00800000E+00  1.00800000E+00
  0.00000000E+00  1.60000000E+01  1.00800000E+00  1.00800000E+00  0.00000000E+00
  1.60000000E+01  1.00800000E+00  1.00800000E+00  0.00000000E+00  1.60000000E+01
  1.00800000E+00  1.00800000E+00  0.00000000E+00  1.60000000E+01  1.00800000E+00
  1.00800000E+00  0.00000000E+00  1.60000000E+01  1.00800000E+00  1.00800000E+00
  0.00000000E+00  1.60000000E+01  1.00800000E+00  1.00800000E+00  0.00000000E+00
  1.60000000E+01  1.00800000E+00  1.00800000E+00  0.00000000E+00  1.60000000E+01
  1.00800000E+00  1.00800000E+00  0.00000000E+00  1.60000000E+01  1.00800000E+00
  1.00800000E+00  0.00000000E+00  1.60000000E+01  1.00800000E+00  1.00800000E+00
  0.00000000E+00  1.60000000E+01  1.00800000E+00  1.00800000E+00  0.00000000E+00
  1.60000000E+01  1.00800000E+00  1.00800000E+00  0.00000000E+00  1.60000000E+01
  1.00800000E+00  1.00800000E+00  0.00000000E+00  1.60000000E+01  1.00800000E+00
  1.00800000E+00  0.00000000E+00  1.60000000E+01  1.00800000E+00  1.00800000E+00
  0.00000000E+00  1.60000000E+01  1.00800000E+00  1.00800000E+00  0.00000000E+00
  1.60000000E+01  1.00800000E+00  1.00800000E+00  0.00000000E+00  1.60000000E+01
  1.00800000E+00  1.00800000E+00  0.00000000E+00  1.60000000E+01  1.00800000E+00
  1.00800000E+00  0.00000000E+00  1.60000000E+01  1.00800000E+00  1.00800000E+00
  0.00000000E+00  1.60000000E+01  1.00800000E+00  1.00800000E+00  0.00000000E+00
  1.60000000E+01  1.00800000E+00  1.00800000E+00  0.00000000E+00  1.60000000E+01
  1.00800000E+00  1.00800000E+00  0.00000000E+00  1.60000000E+01  1.00800000E+00
  1.00800000E+00  0.00000000E+00  1.60000000E+01  1.00800000E+00  1.00800000E+00
  0.00000000E+00  1.60000000E+01  1.00800000E+00  1.00800000E+00  0.00000000E+00
  1.60000000E+01  1.00800000E+00  1.00800000E+00  0.00000000E+00  1.60000000E+01
  1.00800000E+00  1.00800000E+00  0.00000000E+00  1.60000000E+01  1.00800000E+00
  1.00800000E+00  0.00000000E+00  1.60000000E+01  1.00800000E+00  1.00800000E+00
  0.00000000E+00  1.60000000E+01  1.00800000E+00  1.00800000E+00  0.00000000E+00
  1.60000000E+01  1.00800000E+00  1.00800000E+00  0.00000000E+00  1.60000000E+01
  1.00800000E+00  1.00800000E+00  0.00000000E+00  1.60000000E+01  1.00800000E+00
  1.00800000E+00  0.00000000E+00  1.60000000E+01  1.00800000E+00  1.00800000E+00
  0.00000000E+00  1.60000000E+01  1.00800000E+00  1.00800000E+00  0.00000000E+00
  1.60000000E+01  1.00800000E+00  1.00800000E+00  0.00000000E+00  1.60000000E+01
  1.00800000E+00  1.00800000E+00  0.00000000E+00  1.60000000E+01  1.00800000E+00
  1.00800000E+00  0.00000000E+00  1.60000000E+01  1.00800000E+00  1.00800000E+00
  0.00000000E+00  1.60000000E+01  1.00800000E+00  1.00800000E+00  0.00000000E+00
  1.60000000E+01  1.00800000E+00  1.00800000E+00  0.00000000E+00  1.60000000E+01
  1.00800000E+00  1.00800000E+00  0.00000000E+00  1.60000000E+01  1.00800000E+00
  1.00800000E+00  0.00000000E+00  1.60000000E+01  1.00800000E+00  1.00800000E+00
  0.00000000E+00  1.60000000E+01  1.00800000E+00  1.00800000E+00  0.00000000E+00
  1.60000000E+01  1.00800000E+00  1.00800000E+00  0.00000000E+00  1.60000000E+01
  1.00800000E+00  1.00800000E+00  0.00000000E+00  1.60000000E+01  1.00800000E+00
  1.00800000E+00  0.00000000E+00  1.60000000E+01  1.00800000E+00  1.00800000E+00
  0.00000000E+00  1.60000000E+01  1.00800000E+00  1.00800000E+00  0.00000000E+00
  1.60000000E+01  1.00800000E+00  1.00800000E+00  0.00000000E+00  1.60000000E+01
  1.00800000E+00  1.00800000E+00  0.00000000E+00  1.60000000E+01  1.00800000E+00
  1.00800000E+00  0.00000000E+00  1.60000000E+01  1.00800000E+00  1.00800000E+00
  0.00000000E+00  1.60000000E+01  1.00800000E+00  1.00800000E+00  0.00000000E+00
  1.60000000E+01  1.00800000E+00  1.00800000E+00  0.00000000E+00  1.60000000E+01
  1.00800000E+00  1.00800000E+00  0.00000000E+00  1.60000000E+01  1.00800000E+00
  1.00800000E+00  0.00000000E+00  1.60000000E+01  1.00800000E+00  1.00800000E+00
  0.00000000E+00  1.60000000E+01  1.00800000E+00  1.00800000E+00  0.00000000E+00
  1.60000000E+01  1.00800000E+00  1.00800000E+00  0.00000000E+00  1.60000000E+01
  1.00800000E+00  1.00800000E+00  0.00000000E+00  1.60000000E+01  1.00800000E+00
  1.00800000E+00  0.00000000E+00  1.60000000E+01  1.00800000E+00  1.00800000E+00
  0.00000000E+00  1.60000000E+01  1.00800000E+00  1.00800000E+00  0.00000000E+00
  1.60000000E+01  1.00800000E+00  1.00800000E+00  0.00000000E+00  1.60000000E+01
  1.00800000E+00  1.00800000E+00  0.00000000E+00  1.60000000E+01  1.00800000E+00
  1.00800000E+00  0.00000000E+00  1.60000000E+01  1.00800000E+00  1.00800000E+00
  0.00000000E+00  1.60000000E+01  1.00800000E+00  1.00800000E+00  0.00000000E+00
  1.60000000E+01  1.00800000E+00  1.00800000E+00  0.00000000E+00  1.60000000E+01
  1.00800000E+00  1.00800000E+00  0.00000000E+00  1.60000000E+01  1.00800000E+00
  1.00800000E+00  0.00000000E+00  1.60000000E+01  1.00800000E+00  1.00800000E+00
  0.00000000E+00  1.60000000E+01  1.00800000E+00  1.00800000E+00  0.00000000E+00
  1.60000000E+01  1.00800000E+00  1.00800000E+00  0.00000000E+00  1.60000000E+01
  1.00800000E+00  1.00800000E+00  0.00000000E+00  1.60000000E+01  1.00800000E+00
  1.00800000E+00  0.00000000E+00  1.60000000E+01  1.00800000E+00  1.00800000E+00
  0.00000000E+00  1.60000000E+01  1.00800000E+00  1.00800000E+00  0.00000000E+00
  1.60000000E+01  1.00800000E+00  1.00800000E+00  0.00000000E+00  1.60000000E+01
  1.00800000E+00  1.00800000E+00  0.00000000E+00  1.60000000E+01  1.00800000E+00
  1.00800000E+00  0.00000000E+00  1.60000000E+01  1.00800000E+00  1.00800000E+00
  0.00000000E+00  1.60000000E+01  1.00800000E+00  1.00800000E+00  0.00000000E+00
  1.60000000E+01  1.00800000E+00  1.00800000E+00  0.00000000E+00  1.60000000E+01
  1.00800000E+00  1.00800000E+00  0.00000000E+00  1.60000000E+01  1.00800000E+00
  1.00800000E+00  0.00000000E+00  1.60000000E+01  1.00800000E+00  1.00800000E+00
  0.00000000E+00  1.60000000E+01  1.00800000E+00  1.00800000E+00  0.00000000E+00
  1.60000000E+01  1.00800000E+00  1.00800000E+00  0.00000000E+00  1.60000000E+01
  1.00800000E+00  1.00800000E+00  0.00000000E+00  1.60000000E+01  1.00800000E+00
  1.00800000E+00  0.00000000E+00  1.60000000E+01  1.00800000E+00  1.00800000E+00
  0.00000000E+00  1.60000000E+01  1.00800000E+00  1.00800000E+00  0.00000000E+00
  1.60000000E+01  1.00800000E+00  1.00800000E+00  0.00000000E+00  1.60000000E+01
  1.00800000E+00  1.00800000E+00  0.00000000E+00  1.60000000E+01  1.00800000E+00
  1.00800000E+00  0.00000000E+00  1.60000000E+01  1.00800000E+00  1.00800000E+00
  0.00000000E+00  1.60000000E+01  1.00800000E+00  1.00800000E+00  0.00000000E+00
  1.60000000E+01  1.00800000E+00  1.00800000E+00  0.00000000E+00  1.60000000E+01
  1.00800000E+00  1.00800000E+00  0.00000000E+00  1.60000000E+01  1.00800000E+00
  1.00800000E+00  0.00000000E+00  1.60000000E+01  1.00800000E+00  1.00800000E+00
  0.00000000E+00  1.60000000E+01  1.00800000E+00  1.00800000E+00  0.00000000E+00
  1.60000000E+01  1.00800000E+00  1.00800000E+00  0.00000000E+00  1.60000000E+01
  1.00800000E+00  1.00800000E+00  0.00000000E+00  1.60000000E+01  1.00800000E+00
  1.00800000E+00  0.00000000E+00  1.60000000E+01  1.00800000E+00  1.00800000E+00
  0.00000000E+00  1.60000000E+01  1.00800000E+00  1.00800000E+00  0.00000000E+00
  1.60000000E+01  1.00800000E+00  1.00800000E+00  0.00000000E+00  1.60000000E+01
  1.00800000E+00  1.00800000E+00  0.00000000E+00  1.60000000E+01  1.00800000E+00
  1.00800000E+00  0.00000000E+00  1.60000000E+01  1.00800000E+00  1.00800000E+00
  0.00000000E+00  1.60000000E+01  1.00800000E+00  1.00800000E+00  0.00000000E+00
  1.60000000E+01  1.00800000E+00  1.00800000E+00  0.00000000E+00  1.60000000E+01
  1.00800000E+00  1.00800000E+00  0.00000000E+00  1.60000000E+01  1.00800000E+00
  1.00800000E+00  0.00000000E+00  1.60000000E+01  1.00800000E+00  1.00800000E+00
  0.00000000E+00  1.60000000E+01  1.00800000E+00  1.00800000E+00  0.00000000E+00
  1.60000000E+01  1.00800000E+00  1.00800000E+00  0.00000000E+00  1.60000000E+01
  1.00800000E+00  1.00800000E+00  0.00000000E+00  1.60000000E+01  1.00800000E+00
  1.00800000E+00  0.00000000E+00  1.60000000E+01  1.00800000E+00  1.00800000E+00
  0.00000000E+00  1.60000000E+01  1.00800000E+00  1.00800000E+00  0.00000000E+00
  1.60000000E+01  1.00800000E+00  1.00800000E+00  0.00000000E+00  1.60000000E+01
  1.00800000E+00  1.00800000E+00  0.00000000E+00  1.60000000E+01  1.00800000E+00
  1.00800000E+00  0.00000000E+00  1.60000000E+01  1.00800000E+00  1.00800000E+00
  0.00000000E+00  1.60000000E+01  1.00800000E+00  1.00800000E+00  0.00000000E+00
  1.60000000E+01  1.00800000E+00  1.00800000E+00  0.00000000E+00  1.60000000E+01
  1.00800000E+00  1.00800000E+00  0.00000000E+00  1.60000000E+01  1.00800000E+00
  1.00800000E+00  0.00000000E+00  1.60000000E+01  1.00800000E+00  1.00800000E+00
  0.00000000E+00  1.60000000E+01  1.00800000E+00  1.00800000E+00  0.00000000E+00
  1.60000000E+01  1.00800000E+00  1.00800000E+00  0.00000000E+00  1.60000000E+01
  1.00800000E+00  1.00800000E+00  0.00000000E+00  1.60000000E+01  1.00800000E+00
  1.00800000E+00  0.00000000E+00  1.60000000E+01  1.00800000E+00  1.00800000E+00
  0.00000000E+00  1.60000000E+01  1.00800000E+00  1.00800000E+00  0.00000000E+00
  1.60000000E+01  1.00800000E+00  1.00800000E+00  0.00000000E+00  1.60000000E+01
  1.00800000E+00  1.00800000E+00  0.00000000E+00  1.60000000E+01  1.00800000E+00
  1.00800000E+00  0.00000000E+00  1.60000000E+01  1.00800000E+00  1.00800000E+00
  0.00000000E+00  1.60000000E+01  1.00800000E+00  1.00800000E+00  0.00000000E+00
  1.60000000E+01  1.00800000E+00  1.00800000E+00  0.00000000E+00  1.60000000E+01
  1.00800000E+00  1.00800000E+00  0.00000000E+00  1.60000000E+01  1.00800000E+00
  1.00800000E+00  0.00000000E+00  1.60000000E+01  1.00800000E+00  1.00800000E+00
  0.00000000E+00  1.60000000E+01  1.00800000E+00  1.00800000E+00  0.00000000E+00
  1.60000000E+01  1.00800000E+00  1.00800000E+00  0.00000000E+00  1.60000000E+01
  1.00800000E+00  1.00800000E+00  0.00000000E+00  1.60000000E+01  1.00800000E+00
  1.00800000E+00  0.00000000E+00  1.60000000E+01  1.00800000E+00  1.00800000E+00
  0.00000000E+00  1.60000000E+01  1.00800000E+00  1.00800000E+00  0.00000000E+00
  1.60000000E+01  1.00800000E+00  1.00800000E+00  0.00000000E+00  1.60000000E+01
  1.00800000E+00  1.00800000E+00  0.00000000E+00  1.60000000E+01  1.00800000E+00
  1.00800000E+00  0.00000000E+00  1.60000000E+01  1.00800000E+00  1.00800000E+00
  0.00000000E+00  1.60000000E+01  1.00800000E+00  1.00800000E+00  0.00000000E+00
  1.60000000E+01  1.00800000E+00  1.00800000E+00  0.00000000E+00  1.60000000E+01
  1.00800000E+00  1.00800000E+00  0.00000000E+00  1.60000000E+01  1.00800000E+00
  1.00800000E+00  0.00000000E+00  1.60000000E+01  1.00800000E+00  1.00800000E+00
  0.00000000E+00  1.60000000E+01  1.00800000E+00  1.00800000E+00  0.00000000E+00
  1.60000000E+01  1.00800000E+00  1.00800000E+00  0.00000000E+00  1.60000000E+01
  1.00800000E+00  1.00800000E+00  0.00000000E+00  1.60000000E+01  1.00800000E+00
  1.00800000E+00  0.00000000E+00  1.60000000E+01  1.00800000E+00  1.00800000E+00
  0.00000000E+00  1.60000000E+01  1.00800000E+00  1.00800000E+00  0.00000000E+00
  1.60000000E+01  1.00800000E+00  1.00800000E+00  0.00000000E+00  1.60000000E+01
  1.00800000E+00  1.00800000E+00  0.00000000E+00  1.60000000E+01  1.00800000E+00
  1.00800000E+00  0.00000000E+00  1.60000000E+01  1.00800000E+00  1.00800000E+00
  0.00000000E+00  1.60000000E+01  1.00800000E+00  1.00800000E+00  0.00000000E+00
  1.60000000E+01  1.00800000E+00  1.00800000E+00  0.00000000E+00  1.60000000E+01
  1.00800000E+00  1.00800000E+00  0.00000000E+00  1.60000000E+01  1.00800000E+00
  1.00800000E+00  0.00000000E+00  1.60000000E+01  1.00800000E+00  1.00800000E+00
  0.00000000E+00  1.60000000E+01  1.00800000E+00  1.00800000E+00  0.00000000E+00
  1.60000000E+01  1.00800000E+00  1.00800000E+00  0.00000000E+00  1.60000000E+01
  1.00800000E+00  1.00800000E+00  0.00000000E+00  1.60000000E+01  1.00800000E+00
  1.00800000E+00  0.00000000E+00  1.60000000E+01  1.00800000E+00  1.00800000E+00
  0.00000000E+00  1.60000000E+01  1.00800000E+00  1.00800000E+00  0.00000000E+00
  1.60000000E+01  1.00800000E+00  1.00800000E+00  0.00000000E+00  1.60000000E+01
  1.00800000E+00  1.00800000E+00  0.00000000E+00  1.60000000E+01  1.00800000E+00
  1.00800000E+00  0.00000000E+00  1.60000000E+01  1.00800000E+00  1.00800000E+00
  0.00000000E+00  1.60000000E+01  1.00800000E+00  1.00800000E+00  0.00000000E+00
  1.60000000E+01  1.00800000E+00  1.00800000E+00  0.00000000E+00  1.60000000E+01
  1.00800000E+00  1.00800000E+00  0.00000000E+00  1.60000000E+01  1.00800000E+00
  1.00800000E+00  0.00000000E+00  1.60000000E+01  1.00800000E+00  1.00800000E+00
  0.00000000E+00  1.60000000E+01  1.00800000E+00  1.00800000E+00  0.00000000E+00
  1.60000000E+01  1.00800000E+00  1.00800000E+00  0.00000000E+00  1.60000000E+01
  1.00800000E+00  1.00800000E+00  0.00000000E+00  1.60000000E+01  1.00800000E+00
  1.00800000E+00  0.00000000E+00  1.60000000E+01  1.00800000E+00  1.00800000E+00
  0.00000000E+00  1.60000000E+01  1.00800000E+00  1.00800000E+00  0.00000000E+00
  1.60000000E+01  1.00800000E+00  1.00800000E+00  0.00000000E+00  1.60000000E+01
  1.00800000E+00  1.00800000E+00  0.00000000E+00  1.60000000E+01  1.00800000E+00
  1.00800000E+00  0.00000000E+00  1.60000000E+01  1.00800000E+00  1.00800000E+00
  0.00000000E+00  1.60000000E+01  1.00800000E+00  1.00800000E+00  0.00000000E+00
  1.60000000E+01  1.00800000E+00  1.00800000E+00  0.00000000E+00  1.60000000E+01
  1.00800000E+00  1.00800000E+00  0.00000000E+00  1.60000000E+01  1.00800000E+00
  1.00800000E+00  0.00000000E+00  1.60000000E+01  1.00800000E+00  1.00800000E+00
  0.00000000E+00  1.60000000E+01  1.00800000E+00  1.00800000E+00  0.00000000E+00
  1.60000000E+01  1.00800000E+00  1.00800000E+00  0.00000000E+00  1.60000000E+01
  1.00800000E+00  1.00800000E+00  0.00000000E+00  1.60000000E+01  1.00800000E+00
  1.00800000E+00  0.00000000E+00  1.60000000E+01  1.00800000E+00  1.00800000E+00
  0.00000000E+00  1.60000000E+01  1.00800000E+00  1.00800000E+00  0.00000000E+00
  1.60000000E+01  1.00800000E+00  1.00800000E+00  0.00000000E+00  1.60000000E+01
  1.00800000E+00  1.00800000E+00  0.00000000E+00  1.60000000E+01  1.00800000E+00
  1.00800000E+00  0.00000000E+00  1.60000000E+01  1.00800000E+00  1.00800000E+00
  0.00000000E+00  1.60000000E+01  1.00800000E+00  1.00800000E+00  0.00000000E+00
  1.60000000E+01  1.00800000E+00  1.00800000E+00  0.00000000E+00  1.60000000E+01
  1.00800000E+00  1.00800000E+00  0.00000000E+00  1.60000000E+01  1.00800000E+00
  1.00800000E+00  0.00000000E+00  1.60000000E+01  1.00800000E+00  1.00800000E+00
  0.00000000E+00  1.60000000E+01  1.00800000E+00  1.00800000E+00  0.00000000E+00
  1.60000000E+01  1.00800000E+00  1.00800000E+00  0.00000000E+00  1.60000000E+01
  1.00800000E+00  1.00800000E+00  0.00000000E+00  1.60000000E+01  1.00800000E+00
  1.00800000E+00  0.00000000E+00  1.60000000E+01  1.00800000E+00  1.00800000E+00
  0.00000000E+00  1.60000000E+01  1.00800000E+00  1.00800000E+00  0.00000000E+00
  1.60000000E+01  1.00800000E+00  1.00800000E+00  0.00000000E+00  1.60000000E+01
  1.00800000E+00  1.00800000E+00  0.00000000E+00  1.60000000E+01  1.00800000E+00
  1.00800000E+00  0.00000000E+00  1.60000000E+01  1.00800000E+00  1.00800000E+00
  0.00000000E+00  1.60000000E+01  1.00800000E+00  1.00800000E+00  0.00000000E+00
  1.60000000E+01  1.00800000E+00  1.00800000E+00  0.00000000E+00  1.60000000E+01
  1.00800000E+00  1.00800000E+00  0.00000000E+00  1.60000000E+01  1.00800000E+00
  1.00800000E+00  0.00000000E+00  1.60000000E+01  1.00800000E+00  1.00800000E+00
  0.00000000E+00  1.60000000E+01  1.00800000E+00  1.00800000E+00  0.00000000E+00
  1.60000000E+01  1.00800000E+00  1.00800000E+00  0.00000000E+00  1.60000000E+01
  1.00800000E+00  1.00800000E+00  0.00000000E+00  1.60000000E+01  1.00800000E+00
  1.00800000E+00  0.00000000E+00  1.60000000E+01  1.00800000E+00  1.00800000E+00
  0.00000000E+00  1.60000000E+01  1.00800000E+00  1.00800000E+00  0.00000000E+00
  1.60000000E+01  1.00800000E+00  1.00800000E+00  0.00000000E+00  1.60000000E+01
  1.00800000E+00  1.00800000E+00  0.00000000E+00  1.60000000E+01  1.00800000E+00
  1.00800000E+00  0.00000000E+00  1.60000000E+01  1.00800000E+00  1.00800000E+00
  0.00000000E+00  1.60000000E+01  1.00800000E+00  1.00800000E+00  0.00000000E+00
  1.60000000E+01  1.00800000E+00  1.00800000E+00  0.00000000E+00  1.60000000E+01
  1.00800000E+00  1.00800000E+00  0.00000000E+00  1.60000000E+01  1.00800000E+00
  1.00800000E+00  0.00000000E+00  1.60000000E+01  1.00800000E+00  1.00800000E+00
  0.00000000E+00  1.60000000E+01  1.00800000E+00  1.00800000E+00  0.00000000E+00
  1.60000000E+01  1.00800000E+00  1.00800000E+00  0.00000000E+00  1.60000000E+01
  1.00800000E+00  1.00800000E+00  0.00000000E+00  1.60000000E+01  1.00800000E+00
  1.00800000E+00  0.00000000E+00  1.60000000E+01  1.00800000E+00  1.00800000E+00
  0.00000000E+00  1.60000000E+01  1.00800000E+00  1.00800000E+00  0.00000000E+00
  1.60000000E+01  1.00800000E+00  1.00800000E+00  0.00000000E+00  1.60000000E+01
  1.00800000E+00  1.00800000E+00  0.00000000E+00  1.60000000E+01  1.00800000E+00
  1.00800000E+00  0.00000000E+00  1.60000000E+01  1.00800000E+00  1.00800000E+00
  0.00000000E+00  1.60000000E+01  1.00800000E+00  1.00800000E+00  0.00000000E+00
  1.60000000E+01  1.00800000E+00  1.00800000E+00  0.00000000E+00  1.60000000E+01
  1.00800000E+00  1.00800000E+00  0.00000000E+00  1.60000000E+01  1.00800000E+00
  1.00800000E+00  0.00000000E+00  1.60000000E+01  1.00800000E+00  1.00800000E+00
  0.00000000E+00  1.60000000E+01  1.00800000E+00  1.00800000E+00  0.00000000E+00
  1.60000000E+01  1.00800000E+00  1.00800000E+00  0.00000000E+00  1.60000000E+01
  1.00800000E+00  1.00800000E+00  0.00000000E+00  1.60000000E+01  1.00800000E+00
  1.00800000E+00  0.00000000E+00  1.60000000E+01  1.00800000E+00  1.00800000E+00
  0.00000000E+00  1.60000000E+01  1.00800000E+00  1.00800000E+00  0.00000000E+00
  1.60000000E+01  1.00800000E+00  1.00800000E+00  0.00000000E+00  1.60000000E+01
  1.00800000E+00  1.00800000E+00  0.00000000E+00  1.60000000E+01  1.00800000E+00
  1.00800000E+00  0.00000000E+00  1.60000000E+01  1.00800000E+00  1.00800000E+00
  0.00000000E+00  1.60000000E+01  1.00800000E+00  1.00800000E+00  0.00000000E+00
  1.60000000E+01  1.00800000E+00  1.00800000E+00  0.00000000E+00  1.60000000E+01
  1.00800000E+00  1.00800000E+00  0.00000000E+00  1.60000000E+01  1.00800000E+00
  1.00800000E+00  0.00000000E+00  1.60000000E+01  1.00800000E+00  1.00800000E+00
  0.00000000E+00  1.60000000E+01  1.00800000E+00  1.00800000E+00  0.00000000E+00
  1.60000000E+01  1.00800000E+00  1.00800000E+00  0.00000000E+00  1.60000000E+01
  1.00800000E+00  1.00800000E+00  0.00000000E+00  1.60000000E+01  1.00800000E+00
  1.00800000E+00  0.00000000E+00  1.60000000E+01  1.00800000E+00  1.00800000E+00
  0.00000000E+00  1.60000000E+01  1.00800000E+00  1.00800000E+00  0.00000000E+00
  1.60000000E+01  1.00800000E+00  1.00800000E+00  0.00000000E+00  1.60000000E+01
  1.00800000E+00  1.00800000E+00  0.00000000E+00  1.60000000E+01  1.00800000E+00
  1.00800000E+00  0.00000000E+00  1.60000000E+01  1.00800000E+00  1.00800000E+00
  0.00000000E+00  1.60000000E+01  1.00800000E+00  1.00800000E+00  0.00000000E+00
  1.60000000E+01  1.00800000E+00  1.00800000E+00  0.00000000E+00  1.60000000E+01
  1.00800000E+00  1.00800000E+00  0.00000000E+00  1.60000000E+01  1.00800000E+00
  1.00800000E+00  0.00000000E+00  1.60000000E+01  1.00800000E+00  1.00800000E+00
  0.00000000E+00  1.60000000E+01  1.00800000E+00  1.00800000E+00  0.00000000E+00
  1.60000000E+01  1.00800000E+00  1.00800000E+00  0.00000000E+00  1.60000000E+01
  1.00800000E+00  1.00800000E+00  0.00000000E+00  1.60000000E+01  1.00800000E+00
  1.00800000E+00  0.00000000E+00  1.60000000E+01  1.00800000E+00  1.00800000E+00
  0.00000000E+00  1.60000000E+01  1.00800000E+00  1.00800000E+00  0.00000000E+00
  1.60000000E+01  1.00800000E+00  1.00800000E+00  0.00000000E+00  1.60000000E+01
  1.00800000E+00  1.00800000E+00  0.00000000E+00  1.60000000E+01  1.00800000E+00
  1.00800000E+00  0.00000000E+00  1.60000000E+01  1.00800000E+00  1.00800000E+00
  0.00000000E+00  1.60000000E+01  1.00800000E+00  1.00800000E+00  0.00000000E+00
  1.60000000E+01  1.00800000E+00  1.00800000E+00  0.00000000E+00  1.60000000E+01
  1.00800000E+00  1.00800000E+00  0.00000000E+00  1.60000000E+01  1.00800000E+00
  1.00800000E+00  0.00000000E+00  1.60000000E+01  1.00800000E+00  1.00800000E+00
  0.00000000E+00  1.60000000E+01  1.00800000E+00  1.00800000E+00  0.00000000E+00
  1.60000000E+01  1.00800000E+00  1.00800000E+00  0.00000000E+00  1.60000000E+01
  1.00800000E+00  1.00800000E+00  0.00000000E+00  1.60000000E+01  1.00800000E+00
  1.00800000E+00  0.00000000E+00  1.60000000E+01  1.00800000E+00  1.00800000E+00
  0.00000000E+00  1.60000000E+01  1.00800000E+00  1.00800000E+00  0.00000000E+00
  1.60000000E+01  1.00800000E+00  1.00800000E+00  0.00000000E+00  1.60000000E+01
  1.00800000E+00  1.00800000E+00  0.00000000E+00  1.60000000E+01  1.00800000E+00
  1.00800000E+00  0.00000000E+00  1.60000000E+01  1.00800000E+00  1.00800000E+00
  0.00000000E+00  1.60000000E+01  1.00800000E+00  1.00800000E+00  0.00000000E+00
  1.60000000E+01  1.00800000E+00  1.00800000E+00  0.00000000E+00  1.60000000E+01
  1.00800000E+00  1.00800000E+00  0.00000000E+00  1.60000000E+01  1.00800000E+00
  1.00800000E+00  0.00000000E+00  1.60000000E+01  1.00800000E+00  1.00800000E+00
  0.00000000E+00  1.60000000E+01  1.00800000E+00  1.00800000E+00  0.00000000E+00
  1.60000000E+01  1.00800000E+00  1.00800000E+00  0.00000000E+00  1.60000000E+01
  1.00800000E+00  1.00800000E+00  0.00000000E+00  1.60000000E+01  1.00800000E+00
  1.00800000E+00  0.00000000E+00  1.60000000E+01  1.00800000E+00  1.00800000E+00
  0.00000000E+00  1.60000000E+01  1.00800000E+00  1.00800000E+00  0.00000000E+00
  1.60000000E+01  1.00800000E+00  1.00800000E+00  0.00000000E+00  1.60000000E+01
  1.00800000E+00  1.00800000E+00  0.00000000E+00  1.60000000E+01  1.00800000E+00
  1.00800000E+00  0.00000000E+00  1.60000000E+01  1.00800000E+00  1.00800000E+00
  0.00000000E+00  1.60000000E+01  1.00800000E+00  1.00800000E+00  0.00000000E+00
  1.60000000E+01  1.00800000E+00  1.00800000E+00  0.00000000E+00  1.60000000E+01
  1.00800000E+00  1.00800000E+00  0.00000000E+00  1.60000000E+01  1.00800000E+00
  1.00800000E+00  0.00000000E+00  1.60000000E+01  1.00800000E+00  1.00800000E+00
  0.00000000E+00  1.60000000E+01  1.00800000E+00  1.00800000E+00  0.00000000E+00
  1.60000000E+01  1.00800000E+00  1.00800000E+00  0.00000000E+00  1.60000000E+01
  1.00800000E+00  1.00800000E+00  0.00000000E+00  1.60000000E+01  1.00800000E+00
  1.00800000E+00  0.00000000E+00  1.60000000E+01  1.00800000E+00  1.00800000E+00
  0.00000000E+00  1.60000000E+01  1.00800000E+00  1.00800000E+00  0.00000000E+00
  1.60000000E+01  1.00800000E+00  1.00800000E+00  0.00000000E+00  1.60000000E+01
  1.00800000E+00  1.00800000E+00  0.00000000E+00  1.60000000E+01  1.00800000E+00
  1.00800000E+00  0.00000000E+00  1.60000000E+01  1.00800000E+00  1.00800000E+00
  0.00000000E+00  1.60000000E+01  1.00800000E+00  1.00800000E+00  0.00000000E+00
  1.60000000E+01  1.00800000E+00  1.00800000E+00  0.00000000E+00  1.60000000E+01
  1.00800000E+00  1.00800000E+00  0.00000000E+00  1.60000000E+01  1.00800000E+00
  1.00800000E+00  0.00000000E+00  1.60000000E+01  1.00800000E+00  1.00800000E+00
  0.00000000E+00  1.60000000E+01  1.00800000E+00  1.00800000E+00  0.00000000E+00
  1.60000000E+01  1.00800000E+00  1.00800000E+00  0.00000000E+00  1.60000000E+01
  1.00800000E+00  1.00800000E+00  0.00000000E+00  1.60000000E+01  1.00800000E+00
  1.00800000E+00  0.00000000E+00  1.60000000E+01  1.00800000E+00  1.00800000E+00
  0.00000000E+00  1.60000000E+01  1.00800000E+00  1.00800000E+00  0.00000000E+00
  1.60000000E+01  1.00800000E+00  1.00800000E+00  0.00000000E+00  1.60000000E+01
  1.00800000E+00  1.00800000E+00  0.00000000E+00  1.60000000E+01  1.00800000E+00
  1.00800000E+00  0.00000000E+00  1.60000000E+01  1.00800000E+00  1.00800000E+00
  0.00000000E+00  1.60000000E+01  1.00800000E+00  1.00800000E+00  0.00000000E+00
  1.60000000E+01  1.00800000E+00  1.00800000E+00  0.00000000E+00  1.60000000E+01
  1.00800000E+00  1.00800000E+00  0.00000000E+00  1.60000000E+01  1.00800000E+00
  1.00800000E+00  0.00000000E+00  1.60000000E+01  1.00800000E+00  1.00800000E+00
  0.00000000E+00  1.60000000E+01  1.00800000E+00  1.00800000E+00  0.00000000E+00
  1.60000000E+01  1.00800000E+00  1.00800000E+00  0.00000000E+00  1.60000000E+01
  1.00800000E+00  1.00800000E+00  0.00000000E+00  1.60000000E+01  1.00800000E+00
  1.00800000E+00  0.00000000E+00  1.60000000E+01  1.00800000E+00  1.00800000E+00
  0.00000000E+00  1.60000000E+01  1.00800000E+00  1.00800000E+00  0.00000000E+00
  1.60000000E+01  1.00800000E+00  1.00800000E+00  0.00000000E+00  1.60000000E+01
  1.00800000E+00  1.00800000E+00  0.00000000E+00  1.60000000E+01  1.00800000E+00
  1.00800000E+00  0.00000000E+00  1.60000000E+01  1.00800000E+00  1.00800000E+00
  0.00000000E+00  1.60000000E+01  1.00800000E+00  1.00800000E+00  0.00000000E+00
  1.60000000E+01  1.00800000E+00  1.00800000E+00  0.00000000E+00  1.60000000E+01
  1.00800000E+00  1.00800000E+00  0.00000000E+00  1.60000000E+01  1.00800000E+00
  1.00800000E+00  0.00000000E+00  1.60000000E+01  1.00800000E+00  1.00800000E+00
  0.00000000E+00  1.60000000E+01  1.00800000E+00  1.00800000E+00  0.00000000E+00
  1.60000000E+01  1.00800000E+00  1.00800000E+00  0.00000000E+00  1.60000000E+01
  1.00800000E+00  1.00800000E+00  0.00000000E+00  1.60000000E+01  1.00800000E+00
  1.00800000E+00  0.00000000E+00  1.60000000E+01  1.00800000E+00  1.00800000E+00
  0.00000000E+00  1.60000000E+01  1.00800000E+00  1.00800000E+00  0.00000000E+00
  1.60000000E+01  1.00800000E+00  1.00800000E+00  0.00000000E+00  1.60000000E+01
  1.00800000E+00  1.00800000E+00  0.00000000E+00  1.60000000E+01  1.00800000E+00
  1.00800000E+00  0.00000000E+00  1.60000000E+01  1.00800000E+00  1.00800000E+00
  0.00000000E+00  1.60000000E+01  1.00800000E+00  1.00800000E+00  0.00000000E+00
  1.60000000E+01  1.00800000E+00  1.00800000E+00  0.00000000E+00  1.60000000E+01
  1.00800000E+00  1.00800000E+00  0.00000000E+00  1.60000000E+01  1.00800000E+00
  1.00800000E+00  0.00000000E+00  1.60000000E+01  1.00800000E+00  1.00800000E+00
  0.00000000E+00  1.60000000E+01  1.00800000E+00  1.00800000E+00  0.00000000E+00
  1.60000000E+01  1.00800000E+00  1.00800000E+00  0.00000000E+00  1.60000000E+01
  1.00800000E+00  1.00800000E+00  0.00000000E+00  1.60000000E+01  1.00800000E+00
  1.00800000E+00  0.00000000E+00  1.60000000E+01  1.00800000E+00  1.00800000E+00
  0.00000000E+00  1.60000000E+01  1.00800000E+00  1.00800000E+00  0.00000000E+00
  1.60000000E+01  1.00800000E+00  1.00800000E+00  0.00000000E+00  1.60000000E+01
  1.00800000E+00  1.00800000E+00  0.00000000E+00  1.60000000E+01  1.00800000E+00
  1.00800000E+00  0.00000000E+00  1.60000000E+01  1.00800000E+00  1.00800000E+00
  0.00000000E+00  1.60000000E+01  1.00800000E+00  1.00800000E+00  0.00000000E+00
  1.60000000E+01  1.00800000E+00  1.00800000E+00  0.00000000E+00  1.60000000E+01
  1.00800000E+00  1.00800000E+00  0.00000000E+00  1.60000000E+01  1.00800000E+00
  1.00800000E+00  0.00000000E+00  1.60000000E+01  1.00800000E+00  1.00800000E+00
  0.00000000E+00  1.60000000E+01  1.00800000E+00  1.00800000E+00  0.00000000E+00
  1.60000000E+01  1.00800000E+00  1.00800000E+00  0.00000000E+00  1.60000000E+01
  1.00800000E+00  1.00800000E+00  0.00000000E+00  1.60000000E+01  1.00800000E+00
  1.00800000E+00  0.00000000E+00  1.60000000E+01  1.00800000E+00  1.00800000E+00
  0.00000000E+00  1.60000000E+01  1.00800000E+00  1.00800000E+00  0.00000000E+00
  1.60000000E+01  1.00800000E+00  1.00800000E+00  0.00000000E+00  1.60000000E+01
  1.00800000E+00  1.00800000E+00  0.00000000E+00  1.60000000E+01  1.00800000E+00
  1.00800000E+00  0.00000000E+00  1.60000000E+01  1.00800000E+00  1.00800000E+00
  0.00000000E+00  1.60000000E+01  1.00800000E+00  1.00800000E+00  0.00000000E+00
  1.60000000E+01  1.00800000E+00  1.00800000E+00  0.00000000E+00  1.60000000E+01
  1.00800000E+00  1.00800000E+00  0.00000000E+00  1.60000000E+01  1.00800000E+00
  1.00800000E+00  0.00000000E+00  1.60000000E+01  1.00800000E+00  1.00800000E+00
  0.00000000E+00  1.60000000E+01  1.00800000E+00  1.00800000E+00  0.00000000E+00
  1.60000000E+01  1.00800000E+00  1.00800000E+00  0.00000000E+00  1.60000000E+01
  1.00800000E+00  1.00800000E+00  0.00000000E+00  1.60000000E+01  1.00800000E+00
  1.00800000E+00  0.00000000E+00  1.60000000E+01  1.00800000E+00  1.00800000E+00
  0.00000000E+00  1.60000000E+01  1.00800000E+00  1.00800000E+00  0.00000000E+00
  1.60000000E+01  1.00800000E+00  1.00800000E+00  0.00000000E+00  1.60000000E+01
  1.00800000E+00  1.00800000E+00  0.00000000E+00  1.60000000E+01  1.00800000E+00
  1.00800000E+00  0.00000000E+00  1.60000000E+01  1.00800000E+00  1.00800000E+00
  0.00000000E+00  1.60000000E+01  1.00800000E+00  1.00800000E+00  0.00000000E+00
  1.60000000E+01  1.00800000E+00  1.00800000E+00  0.00000000E+00  1.60000000E+01
  1.00800000E+00  1.00800000E+00  0.00000000E+00  1.60000000E+01  1.00800000E+00
  1.00800000E+00  0.00000000E+00  1.60000000E+01  1.00800000E+00  1.00800000E+00
  0.00000000E+00  1.60000000E+01  1.00800000E+00  1.00800000E+00  0.00000000E+00
  1.60000000E+01  1.00800000E+00  1.00800000E+00  0.00000000E+00  1.60000000E+01
  1.00800000E+00  1.00800000E+00  0.00000000E+00  1.60000000E+01  1.00800000E+00
  1.00800000E+00  0.00000000E+00  1.60000000E+01  1.00800000E+00  1.00800000E+00
  0.00000000E+00  1.60000000E+01  1.00800000E+00  1.00800000E+00  0.00000000E+00
  1.60000000E+01  1.00800000E+00  1.00800000E+00  0.00000000E+00  1.60000000E+01
  1.00800000E+00  1.00800000E+00  0.00000000E+00  1.60000000E+01  1.00800000E+00
  1.00800000E+00  0.00000000E+00  1.60000000E+01  1.00800000E+00  1.00800000E+00
  0.00000000E+00  1.60000000E+01  1.00800000E+00  1.00800000E+00  0.00000000E+00
  1.60000000E+01  1.00800000E+00  1.00800000E+00  0.00000000E+00  1.60000000E+01
  1.00800000E+00  1.00800000E+00  0.00000000E+00  1.60000000E+01  1.00800000E+00
  1.00800000E+00  0.00000000E+00  1.60000000E+01  1.00800000E+00  1.00800000E+00
  0.00000000E+00  1.60000000E+01  1.00800000E+00  1.00800000E+00  0.00000000E+00
  1.60000000E+01  1.00800000E+00  1.00800000E+00  0.00000000E+00  1.60000000E+01
  1.00800000E+00  1.00800000E+00  0.00000000E+00  1.60000000E+01  1.00800000E+00
  1.00800000E+00  0.00000000E+00  1.60000000E+01  1.00800000E+00  1.00800000E+00
  0.00000000E+00  1.60000000E+01  1.00800000E+00  1.00800000E+00  0.00000000E+00
  1.60000000E+01  1.00800000E+00  1.00800000E+00  0.00000000E+00  1.60000000E+01
  1.00800000E+00  1.00800000E+00  0.00000000E+00  1.60000000E+01  1.00800000E+00
  1.00800000E+00  0.00000000E+00  1.60000000E+01  1.00800000E+00  1.00800000E+00
  0.00000000E+00  1.60000000E+01  1.00800000E+00  1.00800000E+00  0.00000000E+00
  1.60000000E+01  1.00800000E+00  1.00800000E+00  0.00000000E+00  1.60000000E+01
  1.00800000E+00  1.00800000E+00  0.00000000E+00  1.60000000E+01  1.00800000E+00
  1.00800000E+00  0.00000000E+00  1.60000000E+01  1.00800000E+00  1.00800000E+00
  0.00000000E+00  1.60000000E+01  1.00800000E+00  1.00800000E+00  0.00000000E+00
  1.60000000E+01  1.00800000E+00  1.00800000E+00  0.00000000E+00  1.60000000E+01
  1.00800000E+00  1.00800000E+00  0.00000000E+00  1.60000000E+01  1.00800000E+00
  1.00800000E+00  0.00000000E+00  1.60000000E+01  1.00800000E+00  1.00800000E+00
  0.00000000E+00  1.60000000E+01  1.00800000E+00  1.00800000E+00  0.00000000E+00
  1.60000000E+01  1.00800000E+00  1.00800000E+00  0.00000000E+00  1.60000000E+01
  1.00800000E+00  1.00800000E+00  0.00000000E+00  1.60000000E+01  1.00800000E+00
  1.00800000E+00  0.00000000E+00  1.60000000E+01  1.00800000E+00  1.00800000E+00
  0.00000000E+00  1.60000000E+01  1.00800000E+00  1.00800000E+00  0.00000000E+00
  1.60000000E+01  1.00800000E+00  1.00800000E+00  0.00000000E+00  1.60000000E+01
  1.00800000E+00  1.00800000E+00  0.00000000E+00  1.60000000E+01  1.00800000E+00
  1.00800000E+00  0.00000000E+00  1.60000000E+01  1.00800000E+00  1.00800000E+00
  0.00000000E+00  1.60000000E+01  1.00800000E+00  1.00800000E+00  0.00000000E+00
  1.60000000E+01  1.00800000E+00  1.00800000E+00  0.00000000E+00  1.60000000E+01
  1.00800000E+00  1.00800000E+00  0.00000000E+00  1.60000000E+01  1.00800000E+00
  1.00800000E+00  0.00000000E+00  1.60000000E+01  1.00800000E+00  1.00800000E+00
  0.00000000E+00  1.60000000E+01  1.00800000E+00  1.00800000E+00  0.00000000E+00
  1.60000000E+01  1.00800000E+00  1.00800000E+00  0.00000000E+00  1.60000000E+01
  1.00800000E+00  1.00800000E+00  0.00000000E+00  1.60000000E+01  1.00800000E+00
  1.00800000E+00  0.00000000E+00  1.60000000E+01  1.00800000E+00  1.00800000E+00
  0.00000000E+00  1.60000000E+01  1.00800000E+00  1.00800000E+00  0.00000000E+00
  1.60000000E+01  1.00800000E+00  1.00800000E+00  0.00000000E+00  1.60000000E+01
  1.00800000E+00  1.00800000E+00  0.00000000E+00  1.60000000E+01  1.00800000E+00
  1.00800000E+00  0.00000000E+00  1.60000000E+01  1.00800000E+00  1.00800000E+00
  0.00000000E+00  1.60000000E+01  1.00800000E+00  1.00800000E+00  0.00000000E+00
  1.60000000E+01  1.00800000E+00  1.00800000E+00  0.00000000E+00  1.60000000E+01
  1.00800000E+00  1.00800000E+00  0.00000000E+00  1.60000000E+01  1.00800000E+00
  1.00800000E+00  0.00000000E+00  1.60000000E+01  1.00800000E+00  1.00800000E+00
  0.00000000E+00  1.60000000E+01  1.00800000E+00  1.00800000E+00  0.00000000E+00
  1.60000000E+01  1.00800000E+00  1.00800000E+00  0.00000000E+00  1.60000000E+01
  1.00800000E+00  1.00800000E+00  0.00000000E+00  1.60000000E+01  1.00800000E+00
  1.00800000E+00  0.00000000E+00  1.60000000E+01  1.00800000E+00  1.00800000E+00
  0.00000000E+00  1.60000000E+01  1.00800000E+00  1.00800000E+00  0.00000000E+00
  1.60000000E+01  1.00800000E+00  1.00800000E+00  0.00000000E+00  1.60000000E+01
  1.00800000E+00  1.00800000E+00  0.00000000E+00  1.60000000E+01  1.00800000E+00
  1.00800000E+00  0.00000000E+00  1.60000000E+01  1.00800000E+00  1.00800000E+00
  0.00000000E+00  1.60000000E+01  1.00800000E+00  1.00800000E+00  0.00000000E+00
  1.60000000E+01  1.00800000E+00  1.00800000E+00  0.00000000E+00  1.60000000E+01
  1.00800000E+00  1.00800000E+00  0.00000000E+00  1.60000000E+01  1.00800000E+00
  1.00800000E+00  0.00000000E+00  1.60000000E+01  1.00800000E+00  1.00800000E+00
  0.00000000E+00  1.60000000E+01  1.00800000E+00  1.00800000E+00  0.00000000E+00
  1.60000000E+01  1.00800000E+00  1.00800000E+00  0.00000000E+00  1.60000000E+01
  1.00800000E+00  1.00800000E+00  0.00000000E+00  1.60000000E+01  1.00800000E+00
  1.00800000E+00  0.00000000E+00  1.60000000E+01  1.00800000E+00  1.00800000E+00
  0.00000000E+00  1.60000000E+01  1.00800000E+00  1.00800000E+00  0.00000000E+00
  1.60000000E+01  1.00800000E+00  1.00800000E+00  0.00000000E+00  1.60000000E+01
  1.00800000E+00  1.00800000E+00  0.00000000E+00  1.60000000E+01  1.00800000E+00
  1.00800000E+00  0.00000000E+00  1.60000000E+01  1.00800000E+00  1.00800000E+00
  0.00000000E+00  1.60000000E+01  1.00800000E+00  1.00800000E+00  0.00000000E+00
  1.60000000E+01  1.00800000E+00  1.00800000E+00  0.00000000E+00  1.60000000E+01
  1.00800000E+00  1.00800000E+00  0.00000000E+00  1.60000000E+01  1.00800000E+00
  1.00800000E+00  0.00000000E+00  1.60000000E+01  1.00800000E+00  1.00800000E+00
  0.00000000E+00  1.60000000E+01  1.00800000E+00  1.00800000E+00  0.00000000E+00
  1.60000000E+01  1.00800000E+00  1.00800000E+00  0.00000000E+00  1.60000000E+01
  1.00800000E+00  1.00800000E+00  0.00000000E+00  1.60000000E+01  1.00800000E+00
  1.00800000E+00  0.00000000E+00  1.60000000E+01  1.00800000E+00  1.00800000E+00
  0.00000000E+00  1.60000000E+01  1.00800000E+00  1.00800000E+00  0.00000000E+00
  1.60000000E+01  1.00800000E+00  1.00800000E+00  0.00000000E+00  1.60000000E+01
  1.00800000E+00  1.00800000E+00  0.00000000E+00  1.60000000E+01  1.00800000E+00
  1.00800000E+00  0.00000000E+00  1.60000000E+01  1.00800000E+00  1.00800000E+00
  0.00000000E+00  1.60000000E+01  1.00800000E+00  1.00800000E+00  0.00000000E+00
  1.60000000E+01  1.00800000E+00  1.00800000E+00  0.00000000E+00  1.60000000E+01
  1.00800000E+00  1.00800000E+00  0.00000000E+00  1.60000000E+01  1.00800000E+00
  1.00800000E+00  0.00000000E+00  1.60000000E+01  1.00800000E+00  1.00800000E+00
  0.00000000E+00  1.60000000E+01  1.00800000E+00  1.00800000E+00  0.00000000E+00
  1.60000000E+01  1.00800000E+00  1.00800000E+00  0.00000000E+00  1.60000000E+01
  1.00800000E+00  1.00800000E+00  0.00000000E+00  1.60000000E+01  1.00800000E+00
  1.00800000E+00  0.00000000E+00  1.60000000E+01  1.00800000E+00  1.00800000E+00
  0.00000000E+00  1.60000000E+01  1.00800000E+00  1.00800000E+00  0.00000000E+00
  1.60000000E+01  1.00800000E+00  1.00800000E+00  0.00000000E+00  1.60000000E+01
  1.00800000E+00  1.00800000E+00  0.00000000E+00  1.60000000E+01  1.00800000E+00
  1.00800000E+00  0.00000000E+00  1.60000000E+01  1.00800000E+00  1.00800000E+00
  0.00000000E+00  1.60000000E+01  1.00800000E+00  1.00800000E+00  0.00000000E+00
  1.60000000E+01  1.00800000E+00  1.00800000E+00  0.00000000E+00  1.60000000E+01
  1.00800000E+00  1.00800000E+00  0.00000000E+00  1.60000000E+01  1.00800000E+00
  1.00800000E+00  0.00000000E+00  1.60000000E+01  1.00800000E+00  1.00800000E+00
  0.00000000E+00  1.60000000E+01  1.00800000E+00  1.00800000E+00  0.00000000E+00
  1.60000000E+01  1.00800000E+00  1.00800000E+00  0.00000000E+00  1.60000000E+01
  1.00800000E+00  1.00800000E+00  0.00000000E+00  1.60000000E+01  1.00800000E+00
  1.00800000E+00  0.00000000E+00  1.60000000E+01  1.00800000E+00  1.00800000E+00
  0.00000000E+00  1.60000000E+01  1.00800000E+00  1.00800000E+00  0.00000000E+00
  1.60000000E+01  1.00800000E+00  1.00800000E+00  0.00000000E+00  1.60000000E+01
  1.00800000E+00  1.00800000E+00  0.00000000E+00  1.60000000E+01  1.00800000E+00
  1.00800000E+00  0.00000000E+00  1.60000000E+01  1.00800000E+00  1.00800000E+00
  0.00000000E+00  1.60000000E+01  1.00800000E+00  1.00800000E+00  0.00000000E+00
  1.60000000E+01  1.00800000E+00  1.00800000E+00  0.00000000E+00  1.60000000E+01
  1.00800000E+00  1.00800000E+00  0.00000000E+00  1.60000000E+01  1.00800000E+00
  1.00800000E+00  0.00000000E+00  1.60000000E+01  1.00800000E+00  1.00800000E+00
  0.00000000E+00  1.60000000E+01  1.00800000E+00  1.00800000E+00  0.00000000E+00
  1.60000000E+01  1.00800000E+00  1.00800000E+00  0.00000000E+00  1.60000000E+01
  1.00800000E+00  1.00800000E+00  0.00000000E+00  1.60000000E+01  1.00800000E+00
  1.00800000E+00  0.00000000E+00  1.60000000E+01  1.00800000E+00  1.00800000E+00
  0.00000000E+00  1.60000000E+01  1.00800000E+00  1.00800000E+00  0.00000000E+00
  1.60000000E+01  1.00800000E+00  1.00800000E+00  0.00000000E+00  1.60000000E+01
  1.00800000E+00  1.00800000E+00  0.00000000E+00  1.60000000E+01  1.00800000E+00
  1.00800000E+00  0.00000000E+00  1.60000000E+01  1.00800000E+00  1.00800000E+00
  0.00000000E+00  1.60000000E+01  1.00800000E+00  1.00800000E+00  0.00000000E+00
  1.60000000E+01  1.00800000E+00  1.00800000E+00  0.00000000E+00  1.60000000E+01
  1.00800000E+00  1.00800000E+00  0.00000000E+00  1.60000000E+01  1.00800000E+00
  1.00800000E+00  0.00000000E+00  1.60000000E+01  1.00800000E+00  1.00800000E+00
  0.00000000E+00  1.60000000E+01  1.00800000E+00  1.00800000E+00  0.00000000E+00
  1.60000000E+01  1.00800000E+00  1.00800000E+00  0.00000000E+00  1.60000000E+01
  1.00800000E+00  1.00800000E+00  0.00000000E+00  1.60000000E+01  1.00800000E+00
  1.00800000E+00  0.00000000E+00  1.60000000E+01  1.00800000E+00  1.00800000E+00
  0.00000000E+00  1.60000000E+01  1.00800000E+00  1.00800000E+00  0.00000000E+00
  1.60000000E+01  1.00800000E+00  1.00800000E+00  0.00000000E+00  1.60000000E+01
  1.00800000E+00  1.00800000E+00  0.00000000E+00  1.60000000E+01  1.00800000E+00
  1.00800000E+00  0.00000000E+00  1.60000000E+01  1.00800000E+00  1.00800000E+00
  0.00000000E+00  1.60000000E+01  1.00800000E+00  1.00800000E+00  0.00000000E+00
  1.60000000E+01  1.00800000E+00  1.00800000E+00  0.00000000E+00  1.60000000E+01
  1.00800000E+00  1.00800000E+00  0.00000000E+00  1.60000000E+01  1.00800000E+00
  1.00800000E+00  0.00000000E+00  1.60000000E+01  1.00800000E+00  1.00800000E+00
  0.00000000E+00  1.60000000E+01  1.00800000E+00  1.00800000E+00  0.00000000E+00
  1.60000000E+01  1.00800000E+00  1.00800000E+00  0.00000000E+00  1.60000000E+01
  1.00800000E+00  1.00800000E+00  0.00000000E+00  1.60000000E+01  1.00800000E+00
  1.00800000E+00  0.00000000E+00  1.60000000E+01  1.00800000E+00  1.00800000E+00
  0.00000000E+00  1.60000000E+01  1.00800000E+00  1.00800000E+00  0.00000000E+00
  1.60000000E+01  1.00800000E+00  1.00800000E+00  0.00000000E+00  1.60000000E+01
  1.00800000E+00  1.00800000E+00  0.00000000E+00  1.60000000E+01  1.00800000E+00
  1.00800000E+00  0.00000000E+00  1.60000000E+01  1.00800000E+00  1.00800000E+00
  0.00000000E+00  1.60000000E+01  1.00800000E+00  1.00800000E+00  0.00000000E+00
  1.60000000E+01  1.00800000E+00  1.00800000E+00  0.00000000E+00  1.60000000E+01
  1.00800000E+00  1.00800000E+00  0.00000000E+00  1.60000000E+01  1.00800000E+00
  1.00800000E+00  0.00000000E+00  1.60000000E+01  1.00800000E+00  1.00800000E+00
  0.00000000E+00  1.60000000E+01  1.00800000E+00  1.00800000E+00  0.00000000E+00
  1.60000000E+01  1.00800000E+00  1.00800000E+00  0.00000000E+00  1.60000000E+01
  1.00800000E+00  1.00800000E+00  0.00000000E+00  1.60000000E+01  1.00800000E+00
  1.00800000E+00  0.00000000E+00  1.60000000E+01  1.00800000E+00  1.00800000E+00
  0.00000000E+00  1.60000000E+01  1.00800000E+00  1.00800000E+00  0.00000000E+00
  1.60000000E+01  1.00800000E+00  1.00800000E+00  0.00000000E+00  1.60000000E+01
  1.00800000E+00  1.00800000E+00  0.00000000E+00  1.60000000E+01  1.00800000E+00
  1.00800000E+00  0.00000000E+00  1.60000000E+01  1.00800000E+00  1.00800000E+00
  0.00000000E+00  1.60000000E+01  1.00800000E+00  1.00800000E+00  0.00000000E+00
  1.60000000E+01  1.00800000E+00  1.00800000E+00  0.00000000E+00  1.60000000E+01
  1.00800000E+00  1.00800000E+00  0.00000000E+00  1.60000000E+01  1.00800000E+00
  1.00800000E+00  0.00000000E+00  1.60000000E+01  1.00800000E+00  1.00800000E+00
  0.00000000E+00  1.60000000E+01  1.00800000E+00  1.00800000E+00  0.00000000E+00
  1.60000000E+01  1.00800000E+00  1.00800000E+00  0.00000000E+00  1.60000000E+01
  1.00800000E+00  1.00800000E+00  0.00000000E+00  1.60000000E+01  1.00800000E+00
  1.00800000E+00  0.00000000E+00  1.60000000E+01  1.00800000E+00  1.00800000E+00
  0.00000000E+00  1.60000000E+01  1.00800000E+00  1.00800000E+00  0.00000000E+00
%FLAG ATOM_TYPE_INDEX                                                           
%FORMAT(10I8)                                                                   
       1       2       2       2       3       4       3       5       5       5
       6       7       1       2       3       8       3       5       5       5
       6       7       1       2       3       8       3       5       5       5
       6       7       7       9      10      10      11       9      10      10
      11       9      10      10      11       9      10      10      11       9
      10      10      11       9      10      10      11       9      10      10
      11       9      10      10      11       9      10      10      11       9
      10      10      11       9      10      10      11       9      10      10
      11       9      10      10      11       9      10      10      11       9
      10      10      11       9      10      10      11       9      10      10
      11       9      10      10      11       9      10      10      11       9
      10      10      11       9      10      10      11       9      10      10
      11       9      10      10      11       9      10      10      11       9
      10      10      11       9      10      10      11       9      10      10
      11       9      10      10      11       9      10      10      11       9
      10      10      11       9      10      10      11       9      10      10
      11       9      10      10      11       9      10      10      11       9
      10      10      11       9      10      10      11       9      10      10
      11       9      10      10      11       9      10      10      11       9
      10      10      11       9      10      10      11       9      10      10
      11       9      10      10      11       9      10      10      11       9
      10      10      11       9      10      10      11       9      10      10
      11       9      10      10      11       9      10      10      11       9
      10      10      11       9      10      10      11       9      10      10
      11       9      10      10      11       9      10      10      11       9
      10      10      11       9      10      10      11       9      10      10
      11       9      10      10      11       9      10      10      11       9
      10      10      11       9      10      10      11       9      10      10
      11       9      10      10      11       9      10      10      11       9
      10      10      11       9      10      10      11       9      10      10
      11       9      10      10      11       9      10      10      11       9
      10      10      11       9      10      10      11       9      10      10
      11       9      10      10      11       9      10      10      11       9
      10      10      11       9      10      10      11       9      10      10
      11       9      10      10      11       9      10      10      11       9
      10      10      11       9      10      10      11       9      10      10
      11       9      10      10      11       9      10      10      11       9
      10      10      11       9      10      10      11       9      10      10
      11       9      10      10      11       9      10      10      11       9
      10      10      11       9      10      10      11       9      10      10
      11       9      10      10      11       9      10      10      11       9
      10      10      11       9      10      10      11       9      10      10
      11       9      10      10      11       9      10      10      11       9
      10      10      11       9      10      10      11       9      10      10
      11       9      10      10      11       9      10      10      11       9
      10      10      11       9      10      10      11       9      10      10
      11       9      10      10      11       9      10      10      11       9
      10      10      11       9      10      10      11       9      10      10
      11       9      10      10      11       9      10      10      11       9
      10      10      11       9      10      10      11       9      10      10
      11       9      10      10      11       9      10      10      11       9
      10      10      11       9      10      10      11       9      10      10
      11       9      10      10      11       9      10      10      11       9
      10      10      11       9      10      10      11       9      10      10
      11       9      10      10      11       9      10      10      11       9
      10      10      11       9      10      10      11       9      10      10
      11       9      10      10      11       9      10      10      11       9
      10      10      11       9      10      10      11       9      10      10
      11       9      10      10      11       9      10      10      11       9
      10      10      11       9      10      10      11       9      10      10
      11       9      10      10      11       9      10      10      11       9
      10      10      11       9      10      10      11       9      10      10
      11       9      10      10      11       9      10      10      11       9
      10      10      11       9      10      10      11       9      10      10
      11       9      10      10      11       9      10      10      11       9
      10      10      11       9      10      10      11       9      10      10
      11       9      10      10      11       9      10      10      11       9
      10      10      11       9      10      10      11       9      10      10
      11       9      10      10      11       9      10      10      11       9
      10      10      11       9      10      10      11       9      10      10
      11       9      10      10      11       9      10      10      11       9
      10      10      11       9      10      10      11       9      10      10
      11       9      10      10      11       9      10      10      11       9
      10      10      11       9      10      10      11       9      10      10
      11       9      10      10      11       9      10      10      11       9
      10      10      11       9      10      10      11       9      10      10
      11       9      10      10      11       9      10      10      11       9
      10      10      11       9      10      10      11       9      10      10
      11       9      10      10      11       9      10      10      11       9
      10      10      11       9      10      10      11       9      10      10
      11       9      10      10      11       9      10      10      11       9
      10      10      11       9      10      10      11       9      10      10
      11       9      10      10      11       9      10      10      11       9
      10      10      11       9      10      10      11       9      10      10
      11       9      10      10      11       9      10      10      11       9
      10      10      11       9      10      10      11       9      10      10
      11       9      10      10      11       9      10      10      11       9
      10      10      11       9      10      10      11       9      10      10
      11       9      10      10      11       9      10      10      11       9
      10      10      11       9      10      10      11       9      10      10
      11       9      10      10      11       9      10      10      11       9
      10      10      11       9      10      10      11       9      10      10
      11       9      10      10      11       9      10      10      11       9
      10      10      11       9      10      10      11       9      10      10
      11       9      10      10      11       9      10      10      11       9
      10      10      11       9      10      10      11       9      10      10
      11       9      10      10      11       9      10      10      11       9
      10      10      11       9      10      10      11       9      10      10
      11       9      10      10      11       9      10      10      11       9
      10      10      11       9      10      10      11       9      10      10
      11       9      10      10      11       9      10      10      11       9
      10      10      11       9      10      10      11       9      10      10
      11       9      10      10      11       9      10      10      11       9
      10      10      11       9      10      10      11       9      10      10
      11       9      10      10      11       9      10      10      11       9
      10      10      11       9      10      10      11       9      10      10
      11       9      10      10      11       9      10      10      11       9
      10      10      11       9      10      10      11       9      10      10
      11       9      10      10      11       9      10      10      11       9
      10      10      11       9      10      10      11       9      10      10
      11       9      10      10      11       9      10      10      11       9
      10      10      11       9      10      10      11       9      10      10
      11       9      10      10      11       9      10      10      11       9
      10      10      11       9      10      10      11       9      10      10
      11       9      10      10      11       9      10      10      11       9
      10      10      11       9      10      10      11       9      10      10
      11       9      10      10      11       9      10      10      11       9
      10      10      11       9      10      10      11       9      10      10
      11       9      10      10      11       9      10      10      11       9
      10      10      11       9      10      10      11       9      10      10
      11       9      10      10      11       9      10      10      11       9
      10      10      11       9      10      10      11       9      10      10
      11       9      10      10      11       9      10      10      11       9
      10      10      11       9      10      10      11       9      10      10
      11       9      10      10      11       9      10      10      11       9
      10      10      11       9      10      10      11       9      10      10
      11       9      10      10      11       9      10      10      11       9
      10      10      11       9      10      10      11       9      10      10
      11       9      10      10      11       9      10      10      11       9
      10      10      11       9      10      10      11       9      10      10
      11       9      10      10      11       9      10      10      11       9
      10      10      11       9      10      10      11       9      10      10
      11       9      10      10      11       9      10      10      11       9
      10      10      11       9      10      10      11       9      10      10
      11       9      10      10      11       9      10      10      11       9
      10      10      11       9      10      10      11       9      10      10
      11       9      10      10      11       9      10      10      11       9
      10      10      11       9      10      10      11       9      10      10
      11       9      10      10      11       9      10      10      11       9
      10      10      11       9      10      10      11       9      10      10
      11       9      10      10      11       9      10      10      11       9
      10      10      11       9      10      10      11       9      10      10
      11       9      10      10      11       9      10      10      11       9
      10      10      11       9      10      10      11       9      10      10
      11       9      10      10      11       9      10      10      11       9
      10      10      11       9      10      10      11       9      10      10
      11       9      10      10      11       9      10      10      11       9
      10      10      11       9      10      10      11       9      10      10
      11       9      10      10      11       9      10      10      11       9
      10      10      11       9      10      10      11       9      10      10
      11       9      10      10      11       9      10      10      11       9
      10      10      11       9      10      10      11       9      10      10
      11       9      10      10      11       9      10      10      11       9
      10      10      11       9      10      10      11       9      10      10
      11       9      10      10      11       9      10      10      11       9
      10      10      11       9      10      10      11       9      10      10
      11       9      10      10      11       9      10      10      11       9
      10      10      11       9      10      10      11       9      10      10
      11       9      10      10      11       9      10      10      11       9
      10      10      11       9      10      10      11       9      10      10
      11       9      10      10      11       9      10      10      11       9
      10      10      11       9      10      10      11       9      10      10
      11       9      10      10      11       9      10      10      11       9
      10      10      11       9      10      10      11       9      10      10
      11       9      10      10      11       9      10      10      11       9
      10      10      11       9      10      10      11       9      10      10
      11       9      10      10      11       9      10      10      11       9
      10      10      11       9      10      10      11       9      10      10
      11       9      10      10      11       9      10      10      11       9
      10      10      11       9      10      10      11       9      10      10
      11       9      10      10      11       9      10      10      11       9
      10      10      11       9      10      10      11       9      10      10
      11       9      10      10      11       9      10      10      11       9
      10      10      11       9      10      10      11       9      10      10
      11       9      10      10      11       9      10      10      11       9
      10      10      11       9      10      10      11       9      10      10
      11       9      10      10      11       9      10      10      11       9
      10      10      11       9      10      10      11       9      10      10
      11       9      10      10      11       9      10      10      11       9
      10      10      11       9      10      10      11       9      10      10
      11       9      10      10      11       9      10      10      11       9
      10      10      11       9      10      10      11       9      10      10
      11       9      10      10      11       9      10      10      11       9
      10      10      11       9      10      10      11       9      10      10
      11       9      10      10      11       9      10      10      11       9
      10      10      11       9      10      10      11       9      10      10
      11       9      10      10      11       9      10      10      11       9
      10      10      11       9      10      10      11       9      10      10
      11       9      10      10      11       9      10      10      11       9
      10      10      11       9      10      10      11       9      10      10
      11       9      10      10      11       9      10      10      11       9
      10      10      11       9      10      10      11       9      10      10
      11       9      10      10      11       9      10      10      11       9
      10      10      11       9      10      10      11       9      10      10
      11       9      10      10      11       9      10      10      11       9
      10      10      11       9      10      10      11       9      10      10
      11       9      10      10      11       9      10      10      11       9
      10      10      11       9      10      10      11       9      10      10
      11       9      10      10      11       9      10      10      11       9
      10      10      11       9      10      10      11       9      10      10
      11       9      10      10      11       9      10      10      11       9
      10      10      11       9      10      10      11       9      10      10
      11       9      10      10      11       9      10      10      11       9
      10      10      11       9      10      10      11       9      10      10
      11       9      10      10      11       9      10      10      11       9
      10      10      11       9      10      10      11       9      10      10
      11       9      10      10      11       9      10      10      11       9
      10      10      11       9      10      10      11       9      10      10
      11       9      10      10      11       9      10      10      11       9
      10      10      11       9      10      10      11       9      10      10
      11       9      10      10      11       9      10      10      11       9
      10      10      11       9      10      10      11       9      10      10
      11       9      10      10      11       9      10      10      11       9
      10      10      11       9      10      10      11       9      10      10
      11       9      10      10      11       9      10      10      11       9
      10      10      11       9      10      10      11       9      10      10
      11       9      10      10      11       9      10      10      11       9
      10      10      11       9      10      10      11       9      10      10
      11       9      10      10      11       9      10      10      11       9
      10      10      11       9      10      10      11       9      10      10
      11       9      10      10      11       9      10      10      11       9
      10      10      11       9      10      10      11       9      10      10
      11       9      10      10      11       9      10      10      11       9
      10      10      11       9      10      10      11       9      10      10
      11       9      10      10      11       9      10      10      11       9
      10      10      11       9      10      10      11       9      10      10
      11       9      10      10      11       9      10      10      11       9
      10      10      11       9      10      10      11       9      10      10
      11       9      10      10      11       9      10      10      11       9
      10      10      11       9      10      10      11       9      10      10
      11       9      10      10      11       9      10      10      11       9
      10      10      11       9      10      10      11       9      10      10
      11       9      10      10      11       9      10      10      11       9
      10      10      11       9      10      10      11       9      10      10
      11       9      10      10      11       9      10      10      11       9
      10      10      11       9      10      10      11       9      10      10
      11       9      10      10      11       9      10      10      11       9
      10      10      11       9      10      10      11       9      10      10
      11       9      10      10      11       9      10      10      11       9
      10      10      11       9      10      10      11       9      10      10
      11       9      10      10      11       9      10      10      11       9
      10      10      11       9      10      10      11       9      10      10
      11       9      10      10      11       9      10      10      11       9
      10      10      11       9      10      10      11       9      10      10
      11       9      10      10      11       9      10      10      11       9
      10      10      11       9      10      10      11       9      10      10
      11       9      10      10      11       9      10      10      11       9
      10      10      11       9      10      10      11       9      10      10
      11       9      10      10      11       9      10      10      11       9
      10      10      11       9      10      10      11       9      10      10
      11       9      10      10      11       9      10      10      11       9
      10      10      11       9      10      10      11       9      10      10
      11       9      10      10      11       9      10      10      11       9
      10      10      11       9      10      10      11       9      10      10
      11       9      10      10      11       9      10      10      11       9
      10      10      11       9      10      10      11       9      10      10
      11       9      10      10      11       9      10      10      11       9
      10      10      11       9      10      10      11       9      10      10
      11       9      10      10      11       9      10      10      11       9
      10      10      11       9      10      10      11       9      10      10
      11       9      10      10      11       9      10      10      11       9
      10      10      11       9      10      10      11       9      10      10
      11       9      10      10      11       9      10      10      11       9
      10      10      11       9      10      10      11       9      10      10
      11       9      10      10      11       9      10      10      11       9
      10      10      11       9      10      10      11       9      10      10
      11       9      10      10      11       9      10      10      11       9
      10      10      11       9      10      10      11       9      10      10
      11       9      10      10      11       9      10      10      11       9
      10      10      11       9      10      10      11       9      10      10
      11       9      10      10      11       9      10      10      11       9
      10      10      11       9      10      10      11       9      10      10
      11       9      10      10      11       9      10      10      11       9
      10      10      11       9      10      10      11       9      10      10
      11       9      10      10      11       9      10      10      11       9
      10      10      11       9      10      10      11       9      10      10
      11       9      10      10      11       9      10      10      11       9
      10      10      11       9      10      10      11       9      10      10
      11       9      10      10      11       9      10      10      11       9
      10      10      11       9      10      10      11       9      10      10
      11       9      10      10      11       9      10      10      11       9
      10      10      11       9      10      10      11       9      10      10
      11       9      10      10      11       9      10      10      11       9
      10      10      11       9      10      10      11       9      10      10
      11       9      10      10      11       9      10      10      11       9
      10      10      11       9      10      10      11       9      10      10
      11       9      10      10      11       9      10      10      11       9
      10      10      11       9      10      10      11       9      10      10
      11       9      10      10      11       9      10      10      11       9
      10      10      11       9      10      10      11       9      10      10
      11       9      10      10      11       9      10      10      11       9
      10      10      11       9      10      10      11       9      10      10
      11       9      10      10      11       9      10      10      11       9
      10      10      11       9      10      10      11       9      10      10
      11       9      10      10      11       9      10      10      11       9
      10      10      11       9      10      10      11       9      10      10
      11       9      10      10      11       9      10      10      11       9
      10      10      11       9      10      10      11       9      10      10
      11       9      10      10      11       9      10      10      11       9
      10      10      11       9      10      10      11       9      10      10
      11       9      10      10      11       9      10      10      11       9
      10      10      11       9      10      10      11       9      10      10
      11       9      10      10      11       9      10      10      11       9
      10      10      11       9      10      10      11       9      10      10
      11       9      10      10      11       9      10      10      11       9
      10      10      11       9      10      10      11       9      10      10
      11       9      10      10      11       9      10      10      11       9
      10      10      11       9      10      10      11       9      10      10
      11       9      10      10      11       9      10      10      11       9
      10      10      11       9      10      10      11       9      10      10
      11       9      10      10      11       9      10      10      11       9
      10      10      11       9      10      10      11       9      10      10
      11       9      10      10      11       9      10      10      11       9
      10      10      11       9      10      10      11       9      10      10
      11       9      10      10      11       9      10      10      11       9
      10      10      11       9      10      10      11       9      10      10
      11       9      10      10      11       9      10      10      11       9
      10      10      11       9      10      10      11       9      10      10
      11       9      10      10      11       9      10      10      11       9
      10      10      11       9      10      10      11       9      10      10
      11       9      10      10      11       9      10      10      11       9
      10      10      11       9      10      10      11       9      10      10
      11       9      10      10      11       9      10      10      11       9
      10      10      11       9      10      10      11       9      10      10
      11       9      10      10      11       9      10      10      11       9
      10      10      11       9      10      10      11       9      10      10
      11       9      10      10      11       9      10      10      11       9
      10      10      11       9      10      10      11       9      10      10
      11       9      10      10      11       9      10      10      11       9
      10      10      11       9      10      10      11       9      10      10
      11       9      10      10      11       9      10      10      11       9
      10      10      11       9      10      10      11       9      10      10
      11       9      10      10      11       9      10      10      11       9
      10      10      11       9      10      10      11       9      10      10
      11       9      10      10      11       9      10      10      11       9
      10      10      11       9      10      10      11       9      10      10
      11       9      10      10      11       9      10      10      11       9
      10      10      11       9      10      10      11       9      10      10
      11       9      10      10      11       9      10      10      11       9
      10      10      11       9      10      10      11       9      10      10
      11       9      10      10      11       9      10      10      11       9
      10      10      11       9      10      10      11       9      10      10
      11       9      10      10      11       9      10      10      11       9
      10      10      11       9      10      10      11       9      10      10
      11       9      10      10      11       9      10      10      11       9
      10      10      11       9      10      10      11       9      10      10
      11       9      10      10      11       9      10      10      11       9
      10      10      11       9      10      10      11       9      10      10
      11       9      10      10      11       9      10      10      11       9
      10      10      11       9      10      10      11       9      10      10
      11       9      10      10      11       9      10      10      11       9
      10      10      11       9      10      10      11       9      10      10
      11       9      10      10      11       9      10      10      11       9
      10      10      11       9      10      10      11       9      10      10
      11       9      10      10      11       9      10      10      11       9
      10      10      11       9      10      10      11       9      10      10
      11       9      10      10      11       9      10      10      11       9
      10      10      11       9      10      10      11       9      10      10
      11       9      10      10      11       9      10      10      11       9
      10      10      11       9      10      10      11       9      10      10
      11       9      10      10      11       9      10      10      11       9
      10      10      11       9      10      10      11       9      10      10
      11       9      10      10      11       9      10      10      11       9
      10      10      11       9      10      10      11       9      10      10
      11       9      10      10      11       9      10      10      11       9
      10      10      11       9      10      10      11       9      10      10
      11       9      10      10      11       9      10      10      11       9
      10      10      11       9      10      10      11       9      10      10
      11       9      10      10      11       9      10      10      11       9
      10      10      11       9      10      10      11       9      10      10
      11       9      10      10      11       9      10      10      11       9
      10      10      11       9      10      10      11       9      10      10
      11       9      10      10      11       9      10      10      11       9
      10      10      11       9      10      10      11       9      10      10
      11       9      10      10      11       9      10      10      11       9
      10      10      11       9      10      10      11       9      10      10
      11       9      10      10      11       9      10      10      11       9
      10      10      11       9      10      10      11       9      10      10
      11       9      10      10      11       9      10      10      11       9
      10      10      11       9      10      10      11       9      10      10
      11       9      10      10      11       9      10      10      11       9
      10      10      11       9      10      10      11       9      10      10
      11       9      10      10      11       9      10      10      11       9
      10      10      11       9      10      10      11       9      10      10
      11       9      10      10      11       9      10      10      11       9
      10      10      11       9      10      10      11       9      10      10
      11       9      10      10      11       9      10      10      11       9
      10      10      11       9      10      10      11       9      10      10
      11       9      10      10      11       9      10      10      11       9
      10      10      11       9      10      10      11       9      10      10
      11       9      10      10      11       9      10      10      11       9
      10      10      11       9      10      10      11       9      10      10
      11       9      10      10      11       9      10      10      11       9
      10      10      11       9      10      10      11       9      10      10
      11       9      10      10      11       9      10      10      11       9
      10      10      11       9      10      10      11       9      10      10
      11       9      10      10      11       9      10      10      11       9
      10      10      11       9      10      10      11       9      10      10
      11       9      10      10      11       9      10      10      11       9
      10      10      11       9      10      10      11       9      10      10
      11       9      10      10      11       9      10      10      11       9
      10      10      11       9      10      10      11       9      10      10
      11       9      10      10      11       9      10      10      11       9
      10      10      11       9      10      10      11       9      10      10
      11       9      10      10      11       9      10      10      11       9
      10      10      11       9      10      10      11       9      10      10
      11       9      10      10      11       9      10      10      11       9
      10      10      11       9      10      10      11       9      10      10
      11       9      10      10      11       9      10      10      11       9
      10      10      11       9      10      10      11       9      10      10
      11       9      10      10      11       9      10      10      11       9
      10      10      11       9      10      10      11       9      10      10
      11       9      10      10      11       9      10      10      11       9
      10      10      11       9      10      10      11       9      10      10
      11       9      10      10      11       9      10      10      11       9
      10      10      11       9      10      10      11       9      10      10
      11       9      10      10      11       9      10      10      11       9
      10      10      11       9      10      10      11       9      10      10
      11       9      10      10      11       9      10      10      11       9
      10      10      11       9      10      10      11       9      10      10
      11       9      10      10      11       9      10      10      11       9
      10      10      11       9      10      10      11       9      10      10
      11       9      10      10      11       9      10      10      11       9
      10      10      11       9      10      10      11       9      10      10
      11       9      10      10      11       9      10      10      11       9
      10      10      11       9      10      10      11       9      10      10
      11       9      10      10      11       9      10      10      11       9
      10      10      11       9      10      10      11       9      10      10
      11       9      10      10      11       9      10      10      11       9
      10      10      11       9      10      10      11       9      10      10
      11       9      10      10      11       9      10      10      11       9
      10      10      11       9      10      10      11       9      10      10
      11       9      10      10      11       9      10      10      11       9
      10      10      11       9      10      10      11       9      10      10
      11       9      10      10      11       9      10      10      11       9
      10      10      11       9      10      10      11       9      10      10
      11       9      10      10      11       9      10      10      11       9
      10      10      11       9      10      10      11       9      10      10
      11       9      10      10      11       9      10      10      11       9
      10      10      11       9      10      10      11       9      10      10
      11       9      10      10      11       9      10      10      11       9
      10      10      11       9      10      10      11       9      10      10
      11       9      10      10      11       9      10      10      11       9
      10      10      11       9      10      10      11       9      10      10
      11       9      10      10      11       9      10      10      11       9
      10      10      11       9      10      10      11       9      10      10
      11       9      10      10      11       9      10      10      11       9
      10      10      11       9      10      10      11       9      10      10
      11       9      10      10      11       9      10      10      11       9
      10      10      11       9      10      10      11       9      10      10
      11       9      10      10      11       9      10      10      11       9
      10      10      11       9      10      10      11       9      10      10
      11       9      10      10      11       9      10      10      11       9
      10      10      11       9      10      10      11       9      10      10
      11       9      10      10      11       9      10      10      11       9
      10      10      11       9      10      10      11       9      10      10
      11       9      10      10      11       9      10      10      11       9
      10      10      11       9      10      10      11       9      10      10
      11       9      10      10      11       9      10      10      11       9
      10      10      11       9      10      10      11       9      10      10
      11       9      10      10      11       9      10      10      11       9
      10      10      11       9      10      10      11       9      10      10
      11       9      10      10      11       9      10      10      11       9
      10      10      11       9      10      10      11       9      10      10
      11       9      10      10      11       9      10      10      11       9
      10      10      11       9      10      10      11       9      10      10
      11       9      10      10      11       9      10      10      11       9
      10      10      11       9      10      10      11       9      10      10
      11       9      10      10      11       9      10      10      11       9
      10      10      11       9      10      10      11       9      10      10
      11       9      10      10      11       9      10      10      11       9
      10      10      11       9      10      10      11       9      10      10
      11       9      10      10      11       9      10      10      11       9
      10      10      11       9      10      10      11       9      10      10
      11       9      10      10      11       9      10      10      11       9
      10      10      11       9      10      10      11       9      10      10
      11       9      10      10      11       9      10      10      11       9
      10      10      11       9      10      10      11       9      10      10
      11       9      10      10      11       9      10      10      11       9
      10      10      11       9      10      10      11       9      10      10
      11       9      10      10      11       9      10      10      11       9
      10      10      11       9      10      10      11       9      10      10
      11       9      10      10      11       9      10      10      11       9
      10      10      11       9      10      10      11       9      10      10
      11       9      10      10      11       9      10      10      11       9
      10      10      11       9      10      10      11       9      10      10
      11       9      10      10      11       9      10      10      11       9
      10      10      11       9      10      10      11       9      10      10
      11       9      10      10      11       9      10      10      11       9
      10      10      11       9      10      10      11       9      10      10
      11       9      10      10      11
%FLAG NUMBER_EXCLUDED_ATOMS                                                     
%FORMAT(10I8)                                                                   
      12       6       5       4      10       7       6       3       2       1
       7       3      10       4      10       7       6       3       2       1
       7       3      10       4       8       7       6       3       2       1
       2       1       1       3       2       1       1       3       2       1
       1       3       2       1       1       3       2       1       1       3
       2       1       1       3       2       1       1       3       2       1
       1       3       2       1       1       3       2       1       1       3
       2       1       1       3       2       1       1       3       2       1
       1       3       2       1       1       3       2       1       1       3
       2       1       1       3       2       1       1       3       2       1
       1       3       2       1       1       3       2       1       1       3
       2       1       1       3       2       1       1       3       2       1
       1       3       2       1       1       3       2       1       1       3
       2       1       1       3       2       1       1       3       2       1
       1       3       2       1       1       3       2       1       1       3
       2       1       1       3       2       1       1       3       2       1
       1       3       2       1       1       3       2       1       1       3
       2       1       1       3       2       1       1       3       2       1
       1       3       2       1       1       3       2       1       1       3
       2       1       1       3       2       1       1       3       2       1
       1       3       2       1       1       3       2       1       1       3
       2       1       1       3       2       1       1       3       2       1
       1       3       2       1       1       3       2       1       1       3
       2       1       1       3       2       1       1       3       2       1
       1       3       2       1       1       3       2       1       1       3
       2       1       1       3       2       1       1       3       2       1
       1       3       2       1       1       3       2       1       1       3
       2       1       1       3       2       1       1       3       2       1
       1       3       2       1       1       3       2       1       1       3
       2       1       1       3       2       1       1       3       2       1
       1       3       2       1       1       3       2       1       1       3
       2       1       1       3       2       1       1       3       2       1
       1       3       2       1       1       3       2       1       1       3
       2       1       1       3       2       1       1       3       2       1
       1       3       2       1       1       3       2       1       1       3
       2       1       1       3       2       1       1       3       2       1
       1       3       2       1       1       3       2       1       1       3
       2       1       1       3       2       1       1       3       2       1
       1       3       2       1       1       3       2       1       1       3
       2       1       1       3       2       1       1       3       2       1
       1       3       2       1       1       3       2       1       1       3
       2       1       1       3       2       1       1       3       2       1
       1       3       2       1       1       3       2       1       1       3
       2       1       1       3       2       1       1       3       2       1
       1       3       2       1       1       3       2       1       1       3
       2       1       1       3       2       1       1       3       2       1
       1       3       2       1       1       3       2       1       1       3
       2       1       1       3       2       1       1       3       2       1
       1       3       2       1       1       3       2       1       1       3
       2       1       1       3       2       1       1       3       2       1
       1       3       2       1       1       3       2       1       1       3
       2       1       1       3       2       1       1       3       2       1
       1       3       2       1       1       3       2       1       1       3
       2       1       1       3       2       1       1       3       2       1
       1       3       2       1       1       3       2       1       1       3
       2       1       1       3       2       1       1       3       2       1
       1       3       2       1       1       3       2       1       1       3
       2       1       1       3       2       1       1       3       2       1
       1       3       2       1       1       3       2       1       1       3
       2       1       1       3       2       1       1       3       2       1
       1       3       2       1       1       3       2       1       1       3
       2       1       1       3       2       1       1       3       2       1
       1       3       2       1       1       3       2       1       1       3
       2       1       1       3       2       1       1       3       2       1
       1       3       2       1       1       3       2       1       1       3
       2       1       1       3       2       1       1       3       2       1
       1       3       2       1       1       3       2       1       1       3
       2       1       1       3       2       1       1       3       2       1
       1       3       2       1       1       3       2       1       1       3
       2       1       1       3       2       1       1       3       2       1
       1       3       2       1       1       3       2       1       1       3
       2       1       1       3       2       1       1       3       2       1
       1       3       2       1       1       3       2       1       1       3
       2       1       1       3       2       1       1       3       2       1
       1       3       2       1       1       3       2       1       1       3
       2       1       1       3       2       1       1       3       2       1
       1       3       2       1       1       3       2       1       1       3
       2       1       1       3       2       1       1       3       2       1
       1       3       2       1       1       3       2       1       1       3
       2       1       1       3       2       1       1       3       2       1
       1       3       2       1       1       3       2       1       1       3
       2       1       1       3       2       1       1       3       2       1
       1       3       2       1       1       3       2       1       1       3
       2       1       1       3       2       1       1       3       2       1
       1       3       2       1       1       3       2       1       1       3
       2       1       1       3       2       1       1       3       2       1
       1       3       2       1       1       3       2       1       1       3
       2       1       1       3       2       1       1       3       2       1
       1       3       2       1       1       3       2       1       1       3
       2       1       1       3       2       1       1       3       2       1
       1       3       2       1       1       3       2       1       1       3
       2       1       1       3       2       1       1       3       2       1
       1       3       2       1       1       3       2       1       1       3
       2       1       1       3       2       1       1       3       2       1
       1       3       2       1       1       3       2       1       1       3
       2       1       1       3       2       1       1       3       2       1
       1       3       2       1       1       3       2       1       1       3
       2       1       1       3       2       1       1       3       2       1
       1       3       2       1       1       3       2       1       1       3
       2       1       1       3       2       1       1       3       2       1
       1       3       2       1       1       3       2       1       1       3
       2       1       1       3       2       1       1       3       2       1
       1       3       2       1       1       3       2       1       1       3
       2       1       1       3       2       1       1       3       2       1
       1       3       2       1       1       3       2       1       1       3
       2       1       1       3       2       1       1       3       2       1
       1       3       2       1       1       3       2       1       1       3
       2       1       1       3       2       1       1       3       2       1
       1       3       2       1       1       3       2       1       1       3
       2       1       1       3       2       1       1       3       2       1
       1       3       2       1       1       3       2       1       1       3
       2       1       1       3       2       1       1       3       2       1
       1       3       2       1       1       3       2       1       1       3
       2       1       1       3       2       1       1       3       2       1
       1       3       2       1       1       3       2       1       1       3
       2       1       1       3       2       1       1       3       2       1
       1       3       2       1       1       3       2       1       1       3
       2       1       1       3       2       1       1       3       2       1
       1       3       2       1       1       3       2       1       1       3
       2       1       1       3       2       1       1       3       2       1
       1       3       2       1       1       3       2       1       1       3
       2       1       1       3       2       1       1       3       2       1
       1       3       2       1       1       3       2       1       1       3
       2       1       1       3       2       1       1       3       2       1
       1       3       2       1       1       3       2       1       1       3
       2       1       1       3       2       1       1       3       2       1
       1       3       2       1       1       3       2       1       1       3
       2       1       1       3       2       1       1       3       2       1
       1       3       2       1       1       3       2       1       1       3
       2       1       1       3       2       1       1       3       2       1
       1       3       2       1       1       3       2       1       1       3
       2       1       1       3       2       1       1       3       2       1
       1       3       2       1       1       3       2       1       1       3
       2       1       1       3       2       1       1       3       2       1
       1       3       2       1       1       3       2       1       1       3
       2       1       1       3       2       1       1       3       2       1
       1       3       2       1       1       3       2       1       1       3
       2       1       1       3       2       1       1       3       2       1
       1       3       2       1       1       3       2       1       1       3
       2       1       1       3       2       1       1       3       2       1
       1       3       2       1       1       3       2       1       1       3
       2       1       1       3       2       1       1       3       2       1
       1       3       2       1       1       3       2       1       1       3
       2       1       1       3       2       1       1       3       2       1
       1       3       2       1       1       3       2       1       1       3
       2       1       1       3       2       1       1       3       2       1
       1       3       2       1       1       3       2       1       1       3
       2       1       1       3       2       1       1       3       2       1
       1       3       2       1       1       3       2       1       1       3
       2       1       1       3       2       1       1       3       2       1
       1       3       2       1       1       3       2       1       1       3
       2       1       1       3       2       1       1       3       2       1
       1       3       2       1       1       3       2       1       1       3
       2       1       1       3       2       1       1       3       2       1
       1       3       2       1       1       3       2       1       1       3
       2       1       1       3       2       1       1       3       2       1
       1       3       2       1       1       3       2       1       1       3
       2       1       1       3       2       1       1       3       2       1
       1       3       2       1       1       3       2       1       1       3
       2       1       1       3       2       1       1       3       2       1
       1       3       2       1       1       3       2       1       1       3
       2       1       1       3       2       1       1       3       2       1
       1       3       2       1       1       3       2       1       1       3
       2       1       1       3       2       1       1       3       2       1
       1       3       2       1       1       3       2       1       1       3
       2       1       1       3       2       1       1       3       2       1
       1       3       2       1       1       3       2       1       1       3
       2       1       1       3       2       1       1       3       2       1
       1       3       2       1       1       3       2       1       1       3
       2       1       1       3       2       1       1       3       2       1
       1       3       2       1       1       3       2       1       1       3
       2       1       1       3       2       1       1       3       2       1
       1       3       2       1       1       3       2       1       1       3
       2       1       1       3       2       1       1       3       2       1
       1       3       2       1       1       3       2       1       1       3
       2       1       1       3       2       1       1       3       2       1
       1       3       2       1       1       3       2       1       1       3
       2       1       1       3       2       1       1       3       2       1
       1       3       2       1       1       3       2       1       1       3
       2       1       1       3       2       1       1       3       2       1
       1       3       2       1       1       3       2       1       1       3
       2       1       1       3       2       1       1       3       2       1
       1       3       2       1       1       3       2       1       1       3
       2       1       1       3       2       1       1       3       2       1
       1       3       2       1       1       3       2       1       1       3
       2       1       1       3       2       1       1       3       2       1
       1       3       2       1       1       3       2       1       1       3
       2       1       1       3       2       1       1       3       2       1
       1       3       2       1       1       3       2       1       1       3
       2       1       1       3       2       1       1       3       2       1
       1       3       2       1       1       3       2       1       1       3
       2       1       1       3       2       1       1       3       2       1
       1       3       2       1       1       3       2       1       1       3
       2       1       1       3       2       1       1       3       2       1
       1       3       2       1       1       3       2       1       1       3
       2       1       1       3       2       1       1       3       2       1
       1       3       2       1       1       3       2       1       1       3
       2       1       1       3       2       1       1       3       2       1
       1       3       2       1       1       3       2       1       1       3
       2       1       1       3       2       1       1       3       2       1
       1       3       2       1       1       3       2       1       1       3
       2       1       1       3       2       1       1       3       2       1
       1       3       2       1       1       3       2       1       1       3
       2       1       1       3       2       1       1       3       2       1
       1       3       2       1       1       3       2       1       1       3
       2       1       1       3       2       1       1       3       2       1
       1       3       2       1       1       3       2       1       1       3
       2       1       1       3       2       1       1       3       2       1
       1       3       2       1       1       3       2       1       1       3
       2       1       1       3       2       1       1       3       2       1
       1       3       2       1       1       3       2       1       1       3
       2       1       1       3       2       1       1       3       2       1
       1       3       2       1       1       3       2       1       1       3
       2       1       1       3       2       1       1       3       2       1
       1       3       2       1       1       3       2       1       1       3
       2       1       1       3       2       1       1       3       2       1
       1       3       2       1       1       3       2       1       1       3
       2       1       1       3       2       1       1       3       2       1
       1       3       2       1       1       3       2       1       1       3
       2       1       1       3       2       1       1       3       2       1
       1       3       2       1       1       3       2       1       1       3
       2       1       1       3       2       1       1       3       2       1
       1       3       2       1       1       3       2       1       1       3
       2       1       1       3       2       1       1       3       2       1
       1       3       2       1       1       3       2       1       1       3
       2       1       1       3       2       1       1       3       2       1
       1       3       2       1       1       3       2       1       1       3
       2       1       1       3       2       1       1       3       2       1
       1       3       2       1       1       3       2       1       1       3
       2       1       1       3       2       1       1       3       2       1
       1       3       2       1       1       3       2       1       1       3
       2       1       1       3       2       1       1       3       2       1
       1       3       2       1       1       3       2       1       1       3
       2       1       1       3       2       1       1       3       2       1
       1       3       2       1       1       3       2       1       1       3
       2       1       1       3       2       1       1       3       2       1
       1       3       2       1       1       3       2       1       1       3
       2       1       1       3       2       1       1       3       2       1
       1       3       2       1       1       3       2       1       1       3
       2       1       1       3       2       1       1       3       2       1
       1       3       2       1       1       3       2       1       1       3
       2       1       1       3       2       1       1       3       2       1
       1       3       2       1       1       3       2       1       1       3
       2       1       1       3       2       1       1       3       2       1
       1       3       2       1       1       3       2       1       1       3
       2       1       1       3       2       1       1       3       2       1
       1       3       2       1       1       3       2       1       1       3
       2       1       1       3       2       1       1       3       2       1
       1       3       2       1       1       3       2       1       1       3
       2       1       1       3       2       1       1       3       2       1
       1       3       2       1       1       3       2       1       1       3
       2       1       1       3       2       1       1       3       2       1
       1       3       2       1       1       3       2       1       1       3
       2       1       1       3       2       1       1       3       2       1
       1       3       2       1       1       3       2       1       1       3
       2       1       1       3       2       1       1       3       2       1
       1       3       2       1       1       3       2       1       1       3
       2       1       1       3       2       1       1       3       2       1
       1       3       2       1       1       3       2       1       1       3
       2       1       1       3       2       1       1       3       2       1
       1       3       2       1       1       3       2       1       1       3
       2       1       1       3       2       1       1       3       2       1
       1       3       2       1       1       3       2       1       1       3
       2       1       1       3       2       1       1       3       2       1
       1       3       2       1       1       3       2       1       1       3
       2       1       1       3       2       1       1       3       2       1
       1       3       2       1       1       3       2       1       1       3
       2       1       1       3       2       1       1       3       2       1
       1       3       2       1       1       3       2       1       1       3
       2       1       1       3       2       1       1       3       2       1
       1       3       2       1       1       3       2       1       1       3
       2       1       1       3       2       1       1       3       2       1
       1       3       2       1       1       3       2       1       1       3
       2       1       1       3       2       1       1       3       2       1
       1       3       2       1       1       3       2       1       1       3
       2       1       1       3       2       1       1       3       2       1
       1       3       2       1       1       3       2       1       1       3
       2       1       1       3       2       1       1       3       2       1
       1       3       2       1       1       3       2       1       1       3
       2       1       1       3       2       1       1       3       2       1
       1       3       2       1       1       3       2       1       1       3
       2       1       1       3       2       1       1       3       2       1
       1       3       2       1       1       3       2       1       1       3
       2       1       1       3       2       1       1       3       2       1
       1       3       2       1       1       3       2       1       1       3
       2       1       1       3       2       1       1       3       2       1
       1       3       2       1       1       3       2       1       1       3
       2       1       1       3       2       1       1       3       2       1
       1       3       2       1       1       3       2       1       1       3
       2       1       1       3       2       1       1       3       2       1
       1       3       2       1       1       3       2       1       1       3
       2       1       1       3       2       1       1       3       2       1
       1       3       2       1       1       3       2       1       1       3
       2       1       1       3       2       1       1       3       2       1
       1       3       2       1       1       3       2       1       1       3
       2       1       1       3       2       1       1       3       2       1
       1       3       2       1       1       3       2       1       1       3
       2       1       1       3       2       1       1       3       2       1
       1       3       2       1       1       3       2       1       1       3
       2       1       1       3       2       1       1       3       2       1
       1       3       2       1       1       3       2       1       1       3
       2       1       1       3       2       1       1       3       2       1
       1       3       2       1       1       3       2       1       1       3
       2       1       1       3       2       1       1       3       2       1
       1       3       2       1       1       3       2       1       1       3
       2       1       1       3       2       1       1       3       2       1
       1       3       2       1       1       3       2       1       1       3
       2       1       1       3       2       1       1       3       2       1
       1       3       2       1       1       3       2       1       1       3
       2       1       1       3       2       1       1       3       2       1
       1       3       2       1       1       3       2       1       1       3
       2       1       1       3       2       1       1       3       2       1
       1       3       2       1       1       3       2       1       1       3
       2       1       1       3       2       1       1       3       2       1
       1       3       2       1       1       3       2       1       1       3
       2       1       1       3       2       1       1       3       2       1
       1       3       2       1       1       3       2       1       1       3
       2       1       1       3       2       1       1       3       2       1
       1       3       2       1       1       3       2       1       1       3
       2       1       1       3       2       1       1       3       2       1
       1       3       2       1       1       3       2       1       1       3
       2       1       1       3       2       1       1       3       2       1
       1       3       2       1       1       3       2       1       1       3
       2       1       1       3       2       1       1       3       2       1
       1       3       2       1       1       3       2       1       1       3
       2       1       1       3       2       1       1       3       2       1
       1       3       2       1       1       3       2       1       1       3
       2       1       1       3       2       1       1       3       2       1
       1       3       2       1       1       3       2       1       1       3
       2       1       1       3       2       1       1       3       2       1
       1       3       2       1       1       3       2       1       1       3
       2       1       1       3       2       1       1       3       2       1
       1       3       2       1       1       3       2       1       1       3
       2       1       1       3       2       1       1       3       2       1
       1       3       2       1       1       3       2       1       1       3
       2       1       1       3       2       1       1       3       2       1
       1       3       2       1       1       3       2       1       1       3
       2       1       1       3       2       1       1       3       2       1
       1       3       2       1       1       3       2       1       1       3
       2       1       1       3       2       1       1       3       2       1
       1       3       2       1       1       3       2       1       1       3
       2       1       1       3       2       1       1       3       2       1
       1       3       2       1       1       3       2       1       1       3
       2       1       1       3       2       1       1       3       2       1
       1       3       2       1       1       3       2       1       1       3
       2       1       1       3       2       1       1       3       2       1
       1       3       2       1       1       3       2       1       1       3
       2       1       1       3       2       1       1       3       2       1
       1       3       2       1       1       3       2       1       1       3
       2       1       1       3       2       1       1       3       2       1
       1       3       2       1       1       3       2       1       1       3
       2       1       1       3       2       1       1       3       2       1
       1       3       2       1       1       3       2       1       1       3
       2       1       1       3       2       1       1       3       2       1
       1       3       2       1       1       3       2       1       1       3
       2       1       1       3       2       1       1       3       2       1
       1       3       2       1       1       3       2       1       1       3
       2       1       1       3       2       1       1       3       2       1
       1       3       2       1       1       3       2       1       1       3
       2       1       1       3       2       1       1       3       2       1
       1       3       2       1       1       3       2       1       1       3
       2       1       1       3       2       1       1       3       2       1
       1       3       2       1       1       3       2       1       1       3
       2       1       1       3       2       1       1       3       2       1
       1       3       2       1       1       3       2       1       1       3
       2       1       1       3       2       1       1       3       2       1
       1       3       2       1       1       3       2       1       1       3
       2       1       1       3       2       1       1       3       2       1
       1       3       2       1       1       3       2       1       1       3
       2       1       1       3       2       1       1       3       2       1
       1       3       2       1       1       3       2       1       1       3
       2       1       1       3       2       1       1       3       2       1
       1       3       2       1       1       3       2       1       1       3
       2       1       1       3       2       1       1       3       2       1
       1       3       2       1       1       3       2       1       1       3
       2       1       1       3       2       1       1       3       2       1
       1       3       2       1       1       3       2       1       1       3
       2       1       1       3       2       1       1       3       2       1
       1       3       2       1       1       3       2       1       1       3
       2       1       1       3       2       1       1       3       2       1
       1       3       2       1       1       3       2       1       1       3
       2       1       1       3       2       1       1       3       2       1
       1       3       2       1       1       3       2       1       1       3
       2       1       1       3       2       1       1       3       2       1
       1       3       2       1       1       3       2       1       1       3
       2       1       1       3       2       1       1       3       2       1
       1       3       2       1       1       3       2       1       1       3
       2       1       1       3       2       1       1       3       2       1
       1       3       2       1       1       3       2       1       1       3
       2       1       1       3       2       1       1       3       2       1
       1       3       2       1       1       3       2       1       1       3
       2       1       1       3       2       1       1       3       2       1
       1       3       2       1       1       3       2       1       1       3
       2       1       1       3       2       1       1       3       2       1
       1       3       2       1       1       3       2       1       1       3
       2       1       1       3       2       1       1       3       2       1
       1       3       2       1       1       3       2       1       1       3
       2       1       1       3       2       1       1       3       2       1
       1       3       2       1       1       3       2       1       1       3
       2       1       1       3       2       1       1       3       2       1
       1       3       2       1       1       3       2       1       1       3
       2       1       1       3       2       1       1       3       2       1
       1       3       2       1       1       3       2       1       1       3
       2       1       1       3       2       1       1       3       2       1
       1       3       2       1       1       3       2       1       1       3
       2       1       1       3       2       1       1       3       2       1
       1       3       2       1       1       3       2       1       1       3
       2       1       1       3       2       1       1       3       2       1
       1       3       2       1       1       3       2       1       1       3
       2       1       1       3       2       1       1       3       2       1
       1       3       2       1       1       3       2       1       1       3
       2       1       1       3       2       1       1       3       2       1
       1       3       2       1       1       3       2       1       1       3
       2       1       1       3       2       1       1       3       2       1
       1       3       2       1       1       3       2       1       1       3
       2       1       1       3       2       1       1       3       2       1
       1       3       2       1       1       3       2       1       1       3
       2       1       1       3       2       1       1       3       2       1
       1       3       2       1       1       3       2       1       1       3
       2       1       1       3       2       1       1       3       2       1
       1       3       2       1       1       3       2       1       1       3
       2       1       1       3       2       1       1       3       2       1
       1       3       2       1       1       3       2       1       1       3
       2       1       1       3       2       1       1       3       2       1
       1       3       2       1       1       3       2       1       1       3
       2       1       1       3       2       1       1       3       2       1
       1       3       2       1       1       3       2       1       1       3
       2       1       1       3       2       1       1       3       2       1
       1       3       2       1       1       3       2       1       1       3
       2       1       1       3       2       1       1       3       2       1
       1       3       2       1       1       3       2       1       1       3
       2       1       1       3       2       1       1       3       2       1
       1       3       2       1       1       3       2       1       1       3
       2       1       1       3       2       1       1       3       2       1
       1       3       2       1       1       3       2       1       1       3
       2       1       1       3       2       1       1       3       2       1
       1       3       2       1       1       3       2       1       1       3
       2       1       1       3       2       1       1       3       2       1
       1       3       2       1       1       3       2       1       1       3
       2       1       1       3       2       1       1       3       2       1
       1       3       2       1       1       3       2       1       1       3
       2       1       1       3       2       1       1       3       2       1
       1       3       2       1       1       3       2       1       1       3
       2       1       1       3       2       1       1       3       2       1
       1       3       2       1       1       3       2       1       1       3
       2       1       1       3       2       1       1       3       2       1
       1       3       2       1       1       3       2       1       1       3
       2       1       1       3       2       1       1       3       2       1
       1       3       2       1       1       3       2       1       1       3
       2       1       1       3       2       1       1       3       2       1
       1       3       2       1       1       3       2       1       1       3
       2       1       1       3       2       1       1       3       2       1
       1       3       2       1       1       3       2       1       1       3
       2       1       1       3       2       1       1       3       2       1
       1       3       2       1       1       3       2       1       1       3
       2       1       1       3       2       1       1       3       2       1
       1       3       2       1       1       3       2       1       1       3
       2       1       1       3       2       1       1       3       2       1
       1       3       2       1       1       3       2       1       1       3
       2       1       1       3       2       1       1       3       2       1
       1       3       2       1       1       3       2       1       1       3
       2       1       1       3       2       1       1       3       2       1
       1       3       2       1       1       3       2       1       1       3
       2       1       1       3       2       1       1       3       2       1
       1       3       2       1       1       3       2       1       1       3
       2       1       1       3       2       1       1       3       2       1
       1       3       2       1       1       3       2       1       1       3
       2       1       1       3       2       1       1       3       2       1
       1       3       2       1       1       3       2       1       1       3
       2       1       1       3       2       1       1       3       2       1
       1       3       2       1       1       3       2       1       1       3
       2       1       1       3       2       1       1       3       2       1
       1       3       2       1       1       3       2       1       1       3
       2       1       1       3       2       1       1       3       2       1
       1       3       2       1       1       3       2       1       1       3
       2       1       1       3       2       1       1       3       2       1
       1       3       2       1       1       3       2       1       1       3
       2       1       1       3       2       1       1       3       2       1
       1       3       2       1       1       3       2       1       1       3
       2       1       1       3       2       1       1       3       2       1
       1       3       2       1       1       3       2       1       1       3
       2       1       1       3       2       1       1       3       2       1
       1       3       2       1       1       3       2       1       1       3
       2       1       1       3       2       1       1       3       2       1
       1       3       2       1       1       3       2       1       1       3
       2       1       1       3       2       1       1       3       2       1
       1       3       2       1       1       3       2       1       1       3
       2       1       1       3       2       1       1       3       2       1
       1       3       2       1       1       3       2       1       1       3
       2       1       1       3       2       1       1       3       2       1
       1       3       2       1       1
%FLAG NONBONDED_PARM_INDEX                                                      
%FORMAT(10I8)                                                                   
       1       2       4       7      11      16      22      29      37      46
      56       2       3       5       8      12      17      23      30      38
      47      57       4       5       6       9      13      18      24      31
      39      48      58       7       8       9      10      14      19      25
      32      40      49      59      11      12      13      14      15      20
      26      33      41      50      60      16      17      18      19      20
      21      27      34      42      51      61      22      23      24      25
      26      27      28      35      43      52      62      29      30      31
      32      33      34      35      36      44      53      63      37      38
      39      40      41      42      43      44      45      54      64      46
      47      48      49      50      51      52      53      54      55      65
      56      57      58      59      60      61      62      63      64      65
      66
%FLAG RESIDUE_LABEL                                                             
%FORMAT(20a4)                                                                   
ALA ALA ALA WAT WAT WAT WAT WAT WAT WAT WAT WAT WAT WAT WAT WAT WAT WAT WAT WAT 
WAT WAT WAT WAT WAT WAT WAT WAT WAT WAT WAT WAT WAT WAT WAT WAT WAT WAT WAT WAT 
WAT WAT WAT WAT WAT WAT WAT WAT WAT WAT WAT WAT WAT WAT WAT WAT WAT WAT WAT WAT 
WAT WAT WAT WAT WAT WAT WAT WAT WAT WAT WAT WAT WAT WAT WAT WAT WAT WAT WAT WAT 
WAT WAT WAT WAT WAT WAT WAT WAT WAT WAT WAT WAT WAT WAT WAT WAT WAT WAT WAT WAT 
WAT WAT WAT WAT WAT WAT WAT WAT WAT WAT WAT WAT WAT WAT WAT WAT WAT WAT WAT WAT 
WAT WAT WAT WAT WAT WAT WAT WAT WAT WAT WAT WAT WAT WAT WAT WAT WAT WAT WAT WAT 
WAT WAT WAT WAT WAT WAT WAT WAT WAT WAT WAT WAT WAT WAT WAT WAT WAT WAT WAT WAT 
WAT WAT WAT WAT WAT WAT WAT WAT WAT WAT WAT WAT WAT WAT WAT WAT WAT WAT WAT WAT 
WAT WAT WAT WAT WAT WAT WAT WAT WAT WAT WAT WAT WAT WAT WAT WAT WAT WAT WAT WAT 
WAT WAT WAT WAT WAT WAT WAT WAT WAT WAT WAT WAT WAT WAT WAT WAT WAT WAT WAT WAT 
WAT WAT WAT WAT WAT WAT WAT WAT WAT WAT WAT WAT WAT WAT WAT WAT WAT WAT WAT WAT 
WAT WAT WAT WAT WAT WAT WAT WAT WAT WAT WAT WAT WAT WAT WAT WAT WAT WAT WAT WAT 
WAT WAT WAT WAT WAT WAT WAT WAT WAT WAT WAT WAT WAT WAT WAT WAT WAT WAT WAT WAT 
WAT WAT WAT WAT WAT WAT WAT WAT WAT WAT WAT WAT WAT WAT WAT WAT WAT WAT WAT WAT 
WAT WAT WAT WAT WAT WAT WAT WAT WAT WAT WAT WAT WAT WAT WAT WAT WAT WAT WAT WAT 
WAT WAT WAT WAT WAT WAT WAT WAT WAT WAT WAT WAT WAT WAT WAT WAT WAT WAT WAT WAT 
WAT WAT WAT WAT WAT WAT WAT WAT WAT WAT WAT WAT WAT WAT WAT WAT WAT WAT WAT WAT 
WAT WAT WAT WAT WAT WAT WAT WAT WAT WAT WAT WAT WAT WAT WAT WAT WAT WAT WAT WAT 
WAT WAT WAT WAT WAT WAT WAT WAT WAT WAT WAT WAT WAT WAT WAT WAT WAT WAT WAT WAT 
WAT WAT WAT WAT WAT WAT WAT WAT WAT WAT WAT WAT WAT WAT WAT WAT WAT WAT WAT WAT 
WAT WAT WAT WAT WAT WAT WAT WAT WAT WAT WAT WAT WAT WAT WAT WAT WAT WAT WAT WAT 
WAT WAT WAT WAT WAT WAT WAT WAT WAT WAT WAT WAT WAT WAT WAT WAT WAT WAT WAT WAT 
WAT WAT WAT WAT WAT WAT WAT WAT WAT WAT WAT WAT WAT WAT WAT WAT WAT WAT WAT WAT 
WAT WAT WAT WAT WAT WAT WAT WAT WAT WAT WAT WAT WAT WAT WAT WAT WAT WAT WAT WAT 
WAT WAT WAT WAT WAT WAT WAT WAT WAT WAT WAT WAT WAT WAT WAT WAT WAT WAT WAT WAT 
WAT WAT WAT WAT WAT WAT WAT WAT WAT WAT WAT WAT WAT WAT WAT WAT WAT WAT WAT WAT 
WAT WAT WAT WAT WAT WAT WAT WAT WAT WAT WAT WAT WAT WAT WAT WAT WAT WAT WAT WAT 
WAT WAT WAT WAT WAT WAT WAT WAT WAT WAT WAT WAT WAT WAT WAT WAT WAT WAT WAT WAT 
WAT WAT WAT WAT WAT WAT WAT WAT WAT WAT WAT WAT WAT WAT WAT WAT WAT WAT WAT WAT 
WAT WAT WAT WAT WAT WAT WAT WAT WAT WAT WAT WAT WAT WAT WAT WAT WAT WAT WAT WAT 
WAT WAT WAT WAT WAT WAT WAT WAT WAT WAT WAT WAT WAT WAT WAT WAT WAT WAT WAT WAT 
WAT WAT WAT WAT WAT WAT WAT WAT WAT WAT WAT WAT WAT WAT WAT WAT WAT WAT WAT WAT 
WAT WAT WAT WAT WAT WAT WAT WAT WAT WAT WAT WAT WAT WAT WAT WAT WAT WAT WAT WAT 
WAT WAT WAT WAT WAT WAT WAT WAT WAT WAT WAT WAT WAT WAT WAT WAT WAT WAT WAT WAT 
WAT WAT WAT WAT WAT WAT WAT WAT WAT WAT WAT WAT WAT WAT WAT WAT WAT WAT WAT WAT 
WAT WAT WAT WAT WAT WAT WAT WAT WAT WAT WAT WAT WAT WAT WAT WAT WAT WAT WAT WAT 
WAT WAT WAT WAT WAT WAT WAT WAT WAT WAT WAT WAT WAT WAT WAT WAT WAT WAT WAT WAT 
WAT WAT WAT WAT WAT WAT WAT WAT WAT WAT WAT WAT WAT WAT WAT WAT WAT WAT WAT WAT 
WAT WAT WAT WAT WAT WAT WAT WAT WAT WAT WAT WAT WAT WAT WAT WAT WAT WAT WAT WAT 
WAT WAT WAT WAT WAT WAT WAT WAT WAT WAT WAT WAT WAT WAT WAT WAT WAT WAT WAT WAT 
WAT WAT WAT WAT WAT WAT WAT WAT WAT WAT WAT WAT WAT WAT WAT WAT WAT WAT WAT WAT 
WAT WAT WAT WAT WAT WAT WAT WAT WAT WAT WAT WAT WAT WAT WAT WAT WAT WAT WAT WAT 
WAT WAT WAT WAT WAT WAT WAT WAT WAT WAT WAT WAT WAT WAT WAT WAT WAT WAT WAT WAT 
WAT WAT WAT WAT WAT WAT WAT WAT WAT WAT WAT WAT WAT WAT WAT WAT WAT WAT WAT WAT 
WAT WAT WAT WAT WAT WAT WAT WAT WAT WAT WAT WAT WAT WAT WAT WAT WAT WAT WAT WAT 
WAT WAT WAT WAT WAT WAT WAT WAT WAT WAT WAT WAT WAT WAT WAT WAT WAT WAT WAT WAT 
WAT WAT WAT WAT WAT WAT WAT WAT WAT WAT WAT WAT WAT WAT WAT WAT WAT WAT WAT WAT 
WAT WAT WAT WAT WAT WAT WAT WAT WAT WAT WAT WAT WAT WAT WAT WAT WAT WAT WAT WAT 
WAT WAT WAT WAT WAT WAT WAT WAT WAT WAT WAT WAT WAT WAT WAT WAT WAT WAT WAT WAT 
WAT WAT WAT WAT WAT WAT WAT WAT WAT WAT WAT WAT WAT WAT WAT WAT WAT WAT WAT WAT 
WAT WAT WAT WAT WAT WAT WAT WAT WAT WAT WAT WAT WAT WAT WAT WAT WAT WAT WAT WAT 
WAT WAT WAT WAT WAT WAT WAT WAT WAT WAT WAT WAT WAT WAT WAT WAT WAT WAT WAT WAT 
WAT WAT WAT WAT WAT WAT WAT WAT WAT WAT WAT WAT WAT WAT WAT WAT WAT WAT WAT WAT 
WAT WAT WAT WAT WAT WAT WAT WAT WAT WAT WAT WAT WAT WAT WAT WAT WAT WAT WAT WAT 
WAT WAT WAT WAT WAT WAT WAT WAT WAT WAT WAT WAT WAT WAT WAT WAT WAT WAT WAT WAT 
WAT WAT WAT WAT WAT WAT WAT WAT WAT WAT WAT WAT WAT WAT WAT WAT WAT WAT WAT WAT 
WAT WAT WAT WAT WAT WAT WAT WAT WAT WAT WAT WAT WAT WAT WAT WAT WAT WAT WAT WAT 
WAT WAT WAT WAT WAT WAT WAT WAT WAT WAT WAT WAT WAT WAT WAT WAT WAT WAT WAT WAT 
WAT WAT WAT WAT WAT WAT WAT WAT WAT WAT WAT WAT WAT WAT WAT WAT WAT WAT WAT WAT 
WAT WAT WAT WAT WAT WAT WAT WAT WAT WAT WAT WAT WAT WAT WAT WAT WAT WAT WAT WAT 
WAT 
%FLAG RESIDUE_POINTER                                                           
%FORMAT(10I8)                                                                   
       1      13      23      34      38      42      46      50      54      58
      62      66      70      74      78      82      86      90      94      98
     102     106     110     114     118     122     126     130     134     138
     142     146     150     154     158     162     166     170     174     178
     182     186     190     194     198     202     206     210     214     218
     222     226     230     234     238     242     246     250     254     258
     262     266     270     274     278     282     286     290     294     298
     302     306     310     314     318     322     326     330     334     338
     342     346     350     354     358     362     366     370     374     378
     382     386     390     394     398     402     406     410     414     418
     422     426     430     434     438     442     446     450     454     458
     462     466     470     474     478     482     486     490     494     498
     502     506     510     514     518     522     526     530     534     538
     542     546     550     554     558     562     566     570     574     578
     582     586     590     594     598     602     606     610     614     618
     622     626     630     634     638     642     646     650     654     658
     662     666     670     674     678     682     686     690     694     698
     702     706     710     714     718     722     726     730     734     738
     742     746     750     754     758     762     766     770     774     778
     782     786     790     794     798     802     806     810     814     818
     822     826     830     834     838     842     846     850     854     858
     862     866     870     874     878     882     886     890     894     898
     902     906     910     914     918     922     926     930     934     938
     942     946     950     954     958     962     966     970     974     978
     982     986     990     994     998    1002    1006    1010    1014    1018
    1022    1026    1030    1034    1038    1042    1046    1050    1054    1058
    1062    1066    1070    1074    1078    1082    1086    1090    1094    1098
    1102    1106    1110    1114    1118    1122    1126    1130    1134    1138
    1142    1146    1150    1154    1158    1162    1166    1170    1174    1178
    1182    1186    1190    1194    1198    1202    1206    1210    1214    1218
    1222    1226    1230    1234    1238    1242    1246    1250    1254    1258
    1262    1266    1270    1274    1278    1282    1286    1290    1294    1298
    1302    1306    1310    1314    1318    1322    1326    1330    1334    1338
    1342    1346    1350    1354    1358    1362    1366    1370    1374    1378
    1382    1386    1390    1394    1398    1402    1406    1410    1414    1418
    1422    1426    1430    1434    1438    1442    1446    1450    1454    1458
    1462    1466    1470    1474    1478    1482    1486    1490    1494    1498
    1502    1506    1510    1514    1518    1522    1526    1530    1534    1538
    1542    1546    1550    1554    1558    1562    1566    1570    1574    1578
    1582    1586    1590    1594    1598    1602    1606    1610    1614    1618
    1622    1626    1630    1634    1638    1642    1646    1650    1654    1658
    1662    1666    1670    1674    1678    1682    1686    1690    1694    1698
    1702    1706    1710    1714    1718    1722    1726    1730    1734    1738
    1742    1746    1750    1754    1758    1762    1766    1770    1774    1778
    1782    1786    1790    1794    1798    1802    1806    1810    1814    1818
    1822    1826    1830    1834    1838    1842    1846    1850    1854    1858
    1862    1866    1870    1874    1878    1882    1886    1890    1894    1898
    1902    1906    1910    1914    1918    1922    1926    1930    1934    1938
    1942    1946    1950    1954    1958    1962    1966    1970    1974    1978
    1982    1986    1990    1994    1998    2002    2006    2010    2014    2018
    2022    2026    2030    2034    2038    2042    2046    2050    2054    2058
    2062    2066    2070    2074    2078    2082    2086    2090    2094    2098
    2102    2106    2110    2114    2118    2122    2126    2130    2134    2138
    2142    2146    2150    2154    2158    2162    2166    2170    2174    2178
    2182    2186    2190    2194    2198    2202    2206    2210    2214    2218
    2222    2226    2230    2234    2238    2242    2246    2250    2254    2258
    2262    2266    2270    2274    2278    2282    2286    2290    2294    2298
    2302    2306    2310    2314    2318    2322    2326    2330    2334    2338
    2342    2346    2350    2354    2358    2362    2366    2370    2374    2378
    2382    2386    2390    2394    2398    2402    2406    2410    2414    2418
    2422    2426    2430    2434    2438    2442    2446    2450    2454    2458
    2462    2466    2470    2474    2478    2482    2486    2490    2494    2498
    2502    2506    2510    2514    2518    2522    2526    2530    2534    2538
    2542    2546    2550    2554    2558    2562    2566    2570    2574    2578
    2582    2586    2590    2594    2598    2602    2606    2610    2614    2618
    2622    2626    2630    2634    2638    2642    2646    2650    2654    2658
    2662    2666    2670    2674    2678    2682    2686    2690    2694    2698
    2702    2706    2710    2714    2718    2722    2726    2730    2734    2738
    2742    2746    2750    2754    2758    2762    2766    2770    2774    2778
    2782    2786    2790    2794    2798    2802    2806    2810    2814    2818
    2822    2826    2830    2834    2838    2842    2846    2850    2854    2858
    2862    2866    2870    2874    2878    2882    2886    2890    2894    2898
    2902    2906    2910    2914    2918    2922    2926    2930    2934    2938
    2942    2946    2950    2954    2958    2962    2966    2970    2974    2978
    2982    2986    2990    2994    2998    3002    3006    3010    3014    3018
    3022    3026    3030    3034    3038    3042    3046    3050    3054    3058
    3062    3066    3070    3074    3078    3082    3086    3090    3094    3098
    3102    3106    3110    3114    3118    3122    3126    3130    3134    3138
    3142    3146    3150    3154    3158    3162    3166    3170    3174    3178
    3182    3186    3190    3194    3198    3202    3206    3210    3214    3218
    3222    3226    3230    3234    3238    3242    3246    3250    3254    3258
    3262    3266    3270    3274    3278    3282    3286    3290    3294    3298
    3302    3306    3310    3314    3318    3322    3326    3330    3334    3338
    3342    3346    3350    3354    3358    3362    3366    3370    3374    3378
    3382    3386    3390    3394    3398    3402    3406    3410    3414    3418
    3422    3426    3430    3434    3438    3442    3446    3450    3454    3458
    3462    3466    3470    3474    3478    3482    3486    3490    3494    3498
    3502    3506    3510    3514    3518    3522    3526    3530    3534    3538
    3542    3546    3550    3554    3558    3562    3566    3570    3574    3578
    3582    3586    3590    3594    3598    3602    3606    3610    3614    3618
    3622    3626    3630    3634    3638    3642    3646    3650    3654    3658
    3662    3666    3670    3674    3678    3682    3686    3690    3694    3698
    3702    3706    3710    3714    3718    3722    3726    3730    3734    3738
    3742    3746    3750    3754    3758    3762    3766    3770    3774    3778
    3782    3786    3790    3794    3798    3802    3806    3810    3814    3818
    3822    3826    3830    3834    3838    3842    3846    3850    3854    3858
    3862    3866    3870    3874    3878    3882    3886    3890    3894    3898
    3902    3906    3910    3914    3918    3922    3926    3930    3934    3938
    3942    3946    3950    3954    3958    3962    3966    3970    3974    3978
    3982    3986    3990    3994    3998    4002    4006    4010    4014    4018
    4022    4026    4030    4034    4038    4042    4046    4050    4054    4058
    4062    4066    4070    4074    4078    4082    4086    4090    4094    4098
    4102    4106    4110    4114    4118    4122    4126    4130    4134    4138
    4142    4146    4150    4154    4158    4162    4166    4170    4174    4178
    4182    4186    4190    4194    4198    4202    4206    4210    4214    4218
    4222    4226    4230    4234    4238    4242    4246    4250    4254    4258
    4262    4266    4270    4274    4278    4282    4286    4290    4294    4298
    4302    4306    4310    4314    4318    4322    4326    4330    4334    4338
    4342    4346    4350    4354    4358    4362    4366    4370    4374    4378
    4382    4386    4390    4394    4398    4402    4406    4410    4414    4418
    4422    4426    4430    4434    4438    4442    4446    4450    4454    4458
    4462    4466    4470    4474    4478    4482    4486    4490    4494    4498
    4502    4506    4510    4514    4518    4522    4526    4530    4534    4538
    4542    4546    4550    4554    4558    4562    4566    4570    4574    4578
    4582    4586    4590    4594    4598    4602    4606    4610    4614    4618
    4622    4626    4630    4634    4638    4642    4646    4650    4654    4658
    4662    4666    4670    4674    4678    4682    4686    4690    4694    4698
    4702    4706    4710    4714    4718    4722    4726    4730    4734    4738
    4742    4746    4750    4754    4758    4762    4766    4770    4774    4778
    4782    4786    4790    4794    4798    4802    4806    4810    4814    4818
    4822    4826    4830    4834    4838    4842    4846    4850    4854    4858
    4862    4866    4870    4874    4878    4882    4886    4890    4894    4898
    4902
%FLAG BOND_FORCE_CONSTANT                                                       
%FORMAT(5E16.8)                                                                 
  5.70000000E+02  4.90000000E+02  3.40000000E+02  3.40000000E+02  3.10000000E+02
  3.17000000E+02  4.34000000E+02  3.67000000E+02  3.40000000E+02  3.10000000E+02
  3.17000000E+02  4.34000000E+02  3.37000000E+02  6.56000000E+02  3.40000000E+02
  3.37000000E+02  5.53000000E+02  5.53000000E+02  5.53000000E+02
%FLAG BOND_EQUIL_VALUE                                                          
%FORMAT(5E16.8)                                                                 
  1.22900000E+00  1.33500000E+00  1.09000000E+00  1.09000000E+00  1.52600000E+00
  1.52200000E+00  1.01000000E+00  1.47100000E+00  1.09000000E+00  1.52600000E+00
  1.52200000E+00  1.01000000E+00  1.44900000E+00  1.25000000E+00  1.09000000E+00
  1.44900000E+00  8.72433130E-01  1.37120510E+00  1.59398330E-01
%FLAG ANGLE_FORCE_CONSTANT                                                      
%FORMAT(5E16.8)                                                                 
  8.00000000E+01  5.00000000E+01  5.00000000E+01  3.50000000E+01  6.30000000E+01
  5.00000000E+01  5.00000000E+01  5.00000000E+01  8.00000000E+01  7.00000000E+01
  5.00000000E+01  3.50000000E+01  5.00000000E+01  8.00000000E+01  8.00000000E+01
  5.00000000E+01  6.30000000E+01  5.00000000E+01  5.00000000E+01  5.00000000E+01
  8.00000000E+01  7.00000000E+01  5.00000000E+01  5.00000000E+01  8.00000000E+01
  6.30000000E+01  8.00000000E+01  5.00000000E+01  5.00000000E+01  7.00000000E+01
  5.00000000E+01  5.00000000E+01  8.00000000E+01  6.30000000E+01
%FLAG ANGLE_EQUIL_VALUE                                                         
%FORMAT(5E16.8)                                                                 
  2.14501057E+00  2.09439600E+00  2.12755727E+00  1.91113635E+00  1.93906163E+00
  1.91113635E+00  1.91113635E+00  1.91113635E+00  2.10137732E+00  2.03505478E+00
  1.91113635E+00  1.91113635E+00  1.91113635E+00  1.94080696E+00  1.94080696E+00
  2.12755727E+00  1.93906163E+00  1.91113635E+00  1.91113635E+00  1.91113635E+00
  2.10137732E+00  2.03505478E+00  2.06018753E+00  1.91113635E+00  1.91462701E+00
  1.92160833E+00  2.19911580E+00  1.91113635E+00  1.91113635E+00  2.04203610E+00
  2.06018753E+00  1.91113635E+00  1.91462701E+00  1.92160833E+00
%FLAG DIHEDRAL_FORCE_CONSTANT                                                   
%FORMAT(5E16.8)                                                                 
  2.00000000E+00  2.50000000E+00  0.00000000E+00  0.00000000E+00  0.00000000E+00
  0.00000000E+00  1.55555556E-01  2.00000000E-01  2.00000000E-01  4.00000000E-01
  1.80000000E+00  8.00000000E-01  2.70000000E-01  4.20000000E-01  0.00000000E+00
  0.00000000E+00  0.00000000E+00  1.05000000E+01  1.10000000E+00
%FLAG DIHEDRAL_PERIODICITY                                                      
%FORMAT(5E16.8)                                                                 
  1.00000000E+00  2.00000000E+00  2.00000000E+00  1.00000000E+00  3.00000000E+00
  4.00000000E+00  3.00000000E+00  1.00000000E+00  2.00000000E+00  3.00000000E+00
  2.00000000E+00  3.00000000E+00  2.00000000E+00  3.00000000E+00  3.00000000E+00
  1.00000000E+00  2.00000000E+00  2.00000000E+00  2.00000000E+00
%FLAG DIHEDRAL_PHASE                                                            
%FORMAT(5E16.8)                                                                 
  0.00000000E+00  3.14159400E+00  0.00000000E+00  0.00000000E+00  0.00000000E+00
  0.00000000E+00  0.00000000E+00  0.00000000E+00  0.00000000E+00  0.00000000E+00
  0.00000000E+00  0.00000000E+00  0.00000000E+00  0.00000000E+00  3.14159400E+00
  3.14159400E+00  3.14159400E+00  3.14159400E+00  3.14159400E+00
%FLAG SCEE_SCALE_FACTOR                                                         
%FORMAT(5E16.8)                                                                 
  1.20000000E+00  1.20000000E+00  1.20000000E+00  1.20000000E+00  1.20000000E+00
  1.20000000E+00  1.20000000E+00  1.20000000E+00  1.20000000E+00  1.20000000E+00
  1.20000000E+00  1.20000000E+00  1.20000000E+00  1.20000000E+00  1.20000000E+00
  1.20000000E+00  1.20000000E+00  0.00000000E+00  0.00000000E+00
%FLAG SCNB_SCALE_FACTOR                                                         
%FORMAT(5E16.8)                                                                 
  2.00000000E+00  2.00000000E+00  2.00000000E+00  2.00000000E+00  2.00000000E+00
  2.00000000E+00  2.00000000E+00  2.00000000E+00  2.00000000E+00  2.00000000E+00
  2.00000000E+00  2.00000000E+00  2.00000000E+00  2.00000000E+00  2.00000000E+00
  2.00000000E+00  2.00000000E+00  0.00000000E+00  0.00000000E+00
%FLAG SOLTY                                                                     
%FORMAT(5E16.8)                                                                 
  0.00000000E+00  0.00000000E+00  0.00000000E+00  0.00000000E+00  0.00000000E+00
  0.00000000E+00  0.00000000E+00  0.00000000E+00  0.00000000E+00  0.00000000E+00
  0.00000000E+00  0.00000000E+00  0.00000000E+00  0.00000000E+00  0.00000000E+00
%FLAG LENNARD_JONES_ACOEF                                                       
%FORMAT(5E16.8)                                                                 
  9.44293233E+05  2.12601181E+03  1.39982777E-01  9.95480466E+05  2.56678134E+03
  1.04308023E+06  2.01791425E+04  9.14716912E+00  2.27401052E+04  2.01823541E+02
  8.96776989E+04  1.07193646E+02  9.71708117E+04  1.41077189E+03  7.51607703E+03
  8.82619071E+05  2.27577561E+03  9.24822270E+05  2.01619733E+04  8.61541883E+04
  8.19971662E+05  6.06829342E+05  1.02595236E+03  6.47841731E+05  1.12780457E+04
  5.44261042E+04  5.74393458E+05  3.79876399E+05  6.20665997E+04  5.94667300E+01
  6.78771368E+04  8.79040886E+02  4.98586848E+03  6.01816484E+04  3.69471530E+04
  3.25969625E+03  9.04754248E+05  1.88214625E+03  9.57153878E+05  1.86002079E+04
  8.45678586E+04  8.48637713E+05  5.77196189E+05  5.82169798E+04  8.65113123E+05
  0.00000000E+00  0.00000000E+00  0.00000000E+00  0.00000000E+00  0.00000000E+00
  0.00000000E+00  0.00000000E+00  0.00000000E+00  0.00000000E+00  0.00000000E+00
  0.00000000E+00  0.00000000E+00  0.00000000E+00  0.00000000E+00  0.00000000E+00
  0.00000000E+00  0.00000000E+00  0.00000000E+00  0.00000000E+00  0.00000000E+00
  0.00000000E+00
%FLAG LENNARD_JONES_BCOEF                                                       
%FORMAT(5E16.8)                                                                 
  8.01323529E+02  2.09604198E+01  9.37598976E-02  7.36907417E+02  2.06278363E+01
  6.75612247E+02  6.45756063E+01  7.57919667E-01  6.13981767E+01  3.56012899E+00
  1.36131731E+02  2.59456373E+00  1.26919150E+02  9.41257003E+00  2.17257828E+01
  6.53361429E+02  1.82891803E+01  5.99015525E+02  5.44372326E+01  1.12529845E+02
  5.31102864E+02  6.77220874E+02  1.53505284E+01  6.26720080E+02  5.08951803E+01
  1.11805549E+02  5.55666448E+02  5.64885984E+02  1.13252061E+02  1.93248820E+00
  1.06076943E+02  7.42992380E+00  1.76949863E+01  9.40505980E+01  9.21192136E+01
  1.43076527E+01  8.29661356E+02  2.08605096E+01  7.64308217E+02  6.55778432E+01
  1.39830173E+02  6.77655696E+02  6.98618155E+02  1.16017383E+02  8.58130004E+02
  0.00000000E+00  0.00000000E+00  0.00000000E+00  0.00000000E+00  0.00000000E+00
  0.00000000E+00  0.00000000E+00  0.00000000E+00  0.00000000E+00  0.00000000E+00
  0.00000000E+00  0.00000000E+00  0.00000000E+00  0.00000000E+00  0.00000000E+00
  0.00000000E+00  0.00000000E+00  0.00000000E+00  0.00000000E+00  0.00000000E+00
  0.00000000E+00
%FLAG BONDS_INC_HYDROGEN                                                        
%FORMAT(10I8)                                                                   
      18      21       3      18      24       3      18      27       3      12
      15       4       0       3       7       0       6       7       0       9
       7      48      51       3      48      54       3      48      57       3
      42      45       9      36      39      12      78      81       3      78
      84       3      78      87       3      72      75      15      66      69
      12     102      99      17     105      99      17     105     102      18
     114     111      17     117     111      17     117     114      18     126
     123      17     129     123      17     129     126      18     138     135
      17     141     135      17     141     138      18     150     147      17
     153     147      17     153     150      18     162     159      17     165
     159      17     165     162      18     174     171      17     177     171
      17     177     174      18     186     183      17     189     183      17
     189     186      18     198     195      17     201     195      17     201
     198      18     210     207      17     213     207      17     213     210
      18     222     219      17     225     219      17     225     222      18
     234     231      17     237     231      17     237     234      18     246
     243      17     249     243      17     249     246      18     258     255
      17     261     255      17     261     258      18     270     267      17
     273     267      17     273     270      18     282     279      17     285
     279      17     285     282      18     294     291      17     297     291
      17     297     294      18     306     303      17     309     303      17
     309     306      18     318     315      17     321     315      17     321
     318      18     330     327      17     333     327      17     333     330
      18     342     339      17     345     339      17     345     342      18
     354     351      17     357     351      17     357     354      18     366
     363      17     369     363      17     369     366      18     378     375
      17     381     375      17     381     378      18     390     387      17
     393     387      17     393     390      18     402     399      17     405
     399      17     405     402      18     414     411      17     417     411
      17     417     414      18     426     423      17     429     423      17
     429     426      18     438     435      17     441     435      17     441
     438      18     450     447      17     453     447      17     453     450
      18     462     459      17     465     459      17     465     462      18
     474     471      17     477     471      17     477     474      18     486
     483      17     489     483      17     489     486      18     498     495
      17     501     495      17     501     498      18     510     507      17
     513     507      17     513     510      18     522     519      17     525
     519      17     525     522      18     534     531      17     537     531
      17     537     534      18     546     543      17     549     543      17
     549     546      18     558     555      17     561     555      17     561
     558      18     570     567      17     573     567      17     573     570
      18     582     579      17     585     579      17     585     582      18
     594     591      17     597     591      17     597     594      18     606
     603      17     609     603      17     609     606      18     618     615
      17     621     615      17     621     618      18     630     627      17
     633     627      17     633     630      18     642     639      17     645
     639      17     645     642      18     654     651      17     657     651
      17     657     654      18     666     663      17     669     663      17
     669     666      18     678     675      17     681     675      17     681
     678      18     690     687      17     693     687      17     693     690
      18     702     699      17     705     699      17     705     702      18
     714     711      17     717     711      17     717     714      18     726
     723      17     729     723      17     729     726      18     738     735
      17     741     735      17     741     738      18     750     747      17
     753     747      17     753     750      18     762     759      17     765
     759      17     765     762      18     774     771      17     777     771
      17     777     774      18     786     783      17     789     783      17
     789     786      18     798     795      17     801     795      17     801
     798      18     810     807      17     813     807      17     813     810
      18     822     819      17     825     819      17     825     822      18
     834     831      17     837     831      17     837     834      18     846
     843      17     849     843      17     849     846      18     858     855
      17     861     855      17     861     858      18     870     867      17
     873     867      17     873     870      18     882     879      17     885
     879      17     885     882      18     894     891      17     897     891
      17     897     894      18     906     903      17     909     903      17
     909     906      18     918     915      17     921     915      17     921
     918      18     930     927      17     933     927      17     933     930
      18     942     939      17     945     939      17     945     942      18
     954     951      17     957     951      17     957     954      18     966
     963      17     969     963      17     969     966      18     978     975
      17     981     975      17     981     978      18     990     987      17
     993     987      17     993     990      18    1002     999      17    1005
     999      17    1005    1002      18    1014    1011      17    1017    1011
      17    1017    1014      18    1026    1023      17    1029    1023      17
    1029    1026      18    1038    1035      17    1041    1035      17    1041
    1038      18    1050    1047      17    1053    1047      17    1053    1050
      18    1062    1059      17    1065    1059      17    1065    1062      18
    1074    1071      17    1077    1071      17    1077    1074      18    1086
    1083      17    1089    1083      17    1089    1086      18    1098    1095
      17    1101    1095      17    1101    1098      18    1110    1107      17
    1113    1107      17    1113    1110      18    1122    1119      17    1125
    1119      17    1125    1122      18    1134    1131      17    1137    1131
      17    1137    1134      18    1146    1143      17    1149    1143      17
    1149    1146      18    1158    1155      17    1161    1155      17    1161
    1158      18    1170    1167      17    1173    1167      17    1173    1170
      18    1182    1179      17    1185    1179      17    1185    1182      18
    1194    1191      17    1197    1191      17    1197    1194      18    1206
    1203      17    1209    1203      17    1209    1206      18    1218    1215
      17    1221    1215      17    1221    1218      18    1230    1227      17
    1233    1227      17    1233    1230      18    1242    1239      17    1245
    1239      17    1245    1242      18    1254    1251      17    1257    1251
      17    1257    1254      18    1266    1263      17    1269    1263      17
    1269    1266      18    1278    1275      17    1281    1275      17    1281
    1278      18    1290    1287      17    1293    1287      17    1293    1290
      18    1302    1299      17    1305    1299      17    1305    1302      18
    1314    1311      17    1317    1311      17    1317    1314      18    1326
    1323      17    1329    1323      17    1329    1326      18    1338    1335
      17    1341    1335      17    1341    1338      18    1350    1347      17
    1353    1347      17    1353    1350      18    1362    1359      17    1365
    1359      17    1365    1362      18    1374    1371      17    1377    1371
      17    1377    1374      18    1386    1383      17    1389    1383      17
    1389    1386      18    1398    1395      17    1401    1395      17    1401
    1398      18    1410    1407      17    1413    1407      17    1413    1410
      18    1422    1419      17    1425    1419      17    1425    1422      18
    1434    1431      17    1437    1431      17    1437    1434      18    1446
    1443      17    1449    1443      17    1449    1446      18    1458    1455
      17    1461    1455      17    1461    1458      18    1470    1467      17
    1473    1467      17    1473    1470      18    1482    1479      17    1485
    1479      17    1485    1482      18    1494    1491      17    1497    1491
      17    1497    1494      18    1506    1503      17    1509    1503      17
    1509    1506      18    1518    1515      17    1521    1515      17    1521
    1518      18    1530    1527      17    1533    1527      17    1533    1530
      18    1542    1539      17    1545    1539      17    1545    1542      18
    1554    1551      17    1557    1551      17    1557    1554      18    1566
    1563      17    1569    1563      17    1569    1566      18    1578    1575
      17    1581    1575      17    1581    1578      18    1590    1587      17
    1593    1587      17    1593    1590      18    1602    1599      17    1605
    1599      17    1605    1602      18    1614    1611      17    1617    1611
      17    1617    1614      18    1626    1623      17    1629    1623      17
    1629    1626      18    1638    1635      17    1641    1635      17    1641
    1638      18    1650    1647      17    1653    1647      17    1653    1650
      18    1662    1659      17    1665    1659      17    1665    1662      18
    1674    1671      17    1677    1671      17    1677    1674      18    1686
    1683      17    1689    1683      17    1689    1686      18    1698    1695
      17    1701    1695      17    1701    1698      18    1710    1707      17
    1713    1707      17    1713    1710      18    1722    1719      17    1725
    1719      17    1725    1722      18    1734    1731      17    1737    1731
      17    1737    1734      18    1746    1743      17    1749    1743      17
    1749    1746      18    1758    1755      17    1761    1755      17    1761
    1758      18    1770    1767      17    1773    1767      17    1773    1770
      18    1782    1779      17    1785    1779      17    1785    1782      18
    1794    1791      17    1797    1791      17    1797    1794      18    1806
    1803      17    1809    1803      17    1809    1806      18    1818    1815
      17    1821    1815      17    1821    1818      18    1830    1827      17
    1833    1827      17    1833    1830      18    1842    1839      17    1845
    1839      17    1845    1842      18    1854    1851      17    1857    1851
      17    1857    1854      18    1866    1863      17    1869    1863      17
    1869    1866      18    1878    1875      17    1881    1875      17    1881
    1878      18    1890    1887      17    1893    1887      17    1893    1890
      18    1902    1899      17    1905    1899      17    1905    1902      18
    1914    1911      17    1917    1911      17    1917    1914      18    1926
    1923      17    1929    1923      17    1929    1926      18    1938    1935
      17    1941    1935      17    1941    1938      18    1950    1947      17
    1953    1947      17    1953    1950      18    1962    1959      17    1965
    1959      17    1965    1962      18    1974    1971      17    1977    1971
      17    1977    1974      18    1986    1983      17    1989    1983      17
    1989    1986      18    1998    1995      17    2001    1995      17    2001
    1998      18    2010    2007      17    2013    2007      17    2013    2010
      18    2022    2019      17    2025    2019      17    2025    2022      18
    2034    2031      17    2037    2031      17    2037    2034      18    2046
    2043      17    2049    2043      17    2049    2046      18    2058    2055
      17    2061    2055      17    2061    2058      18    2070    2067      17
    2073    2067      17    2073    2070      18    2082    2079      17    2085
    2079      17    2085    2082      18    2094    2091      17    2097    2091
      17    2097    2094      18    2106    2103      17    2109    2103      17
    2109    2106      18    2118    2115      17    2121    2115      17    2121
    2118      18    2130    2127      17    2133    2127      17    2133    2130
      18    2142    2139      17    2145    2139      17    2145    2142      18
    2154    2151      17    2157    2151      17    2157    2154      18    2166
    2163      17    2169    2163      17    2169    2166      18    2178    2175
      17    2181    2175      17    2181    2178      18    2190    2187      17
    2193    2187      17    2193    2190      18    2202    2199      17    2205
    2199      17    2205    2202      18    2214    2211      17    2217    2211
      17    2217    2214      18    2226    2223      17    2229    2223      17
    2229    2226      18    2238    2235      17    2241    2235      17    2241
    2238      18    2250    2247      17    2253    2247      17    2253    2250
      18    2262    2259      17    2265    2259      17    2265    2262      18
    2274    2271      17    2277    2271      17    2277    2274      18    2286
    2283      17    2289    2283      17    2289    2286      18    2298    2295
      17    2301    2295      17    2301    2298      18    2310    2307      17
    2313    2307      17    2313    2310      18    2322    2319      17    2325
    2319      17    2325    2322      18    2334    2331      17    2337    2331
      17    2337    2334      18    2346    2343      17    2349    2343      17
    2349    2346      18    2358    2355      17    2361    2355      17    2361
    2358      18    2370    2367      17    2373    2367      17    2373    2370
      18    2382    2379      17    2385    2379      17    2385    2382      18
    2394    2391      17    2397    2391      17    2397    2394      18    2406
    2403      17    2409    2403      17    2409    2406      18    2418    2415
      17    2421    2415      17    2421    2418      18    2430    2427      17
    2433    2427      17    2433    2430      18    2442    2439      17    2445
    2439      17    2445    2442      18    2454    2451      17    2457    2451
      17    2457    2454      18    2466    2463      17    2469    2463      17
    2469    2466      18    2478    2475      17    2481    2475      17    2481
    2478      18    2490    2487      17    2493    2487      17    2493    2490
      18    2502    2499      17    2505    2499      17    2505    2502      18
    2514    2511      17    2517    2511      17    2517    2514      18    2526
    2523      17    2529    2523      17    2529    2526      18    2538    2535
      17    2541    2535      17    2541    2538      18    2550    2547      17
    2553    2547      17    2553    2550      18    2562    2559      17    2565
    2559      17    2565    2562      18    2574    2571      17    2577    2571
      17    2577    2574      18    2586    2583      17    2589    2583      17
    2589    2586      18    2598    2595      17    2601    2595      17    2601
    2598      18    2610    2607      17    2613    2607      17    2613    2610
      18    2622    2619      17    2625    2619      17    2625    2622      18
    2634    2631      17    2637    2631      17    2637    2634      18    2646
    2643      17    2649    2643      17    2649    2646      18    2658    2655
      17    2661    2655      17    2661    2658      18    2670    2667      17
    2673    2667      17    2673    2670      18    2682    2679      17    2685
    2679      17    2685    2682      18    2694    2691      17    2697    2691
      17    2697    2694      18    2706    2703      17    2709    2703      17
    2709    2706      18    2718    2715      17    2721    2715      17    2721
    2718      18    2730    2727      17    2733    2727      17    2733    2730
      18    2742    2739      17    2745    2739      17    2745    2742      18
    2754    2751      17    2757    2751      17    2757    2754      18    2766
    2763      17    2769    2763      17    2769    2766      18    2778    2775
      17    2781    2775      17    2781    2778      18    2790    2787      17
    2793    2787      17    2793    2790      18    2802    2799      17    2805
    2799      17    2805    2802      18    2814    2811      17    2817    2811
      17    2817    2814      18    2826    2823      17    2829    2823      17
    2829    2826      18    2838    2835      17    2841    2835      17    2841
    2838      18    2850    2847      17    2853    2847      17    2853    2850
      18    2862    2859      17    2865    2859      17    2865    2862      18
    2874    2871      17    2877    2871      17    2877    2874      18    2886
    2883      17    2889    2883      17    2889    2886      18    2898    2895
      17    2901    2895      17    2901    2898      18    2910    2907      17
    2913    2907      17    2913    2910      18    2922    2919      17    2925
    2919      17    2925    2922      18    2934    2931      17    2937    2931
      17    2937    2934      18    2946    2943      17    2949    2943      17
    2949    2946      18    2958    2955      17    2961    2955      17    2961
    2958      18    2970    2967      17    2973    2967      17    2973    2970
      18    2982    2979      17    2985    2979      17    2985    2982      18
    2994    2991      17    2997    2991      17    2997    2994      18    3006
    3003      17    3009    3003      17    3009    3006      18    3018    3015
      17    3021    3015      17    3021    3018      18    3030    3027      17
    3033    3027      17    3033    3030      18    3042    3039      17    3045
    3039      17    3045    3042      18    3054    3051      17    3057    3051
      17    3057    3054      18    3066    3063      17    3069    3063      17
    3069    3066      18    3078    3075      17    3081    3075      17    3081
    3078      18    3090    3087      17    3093    3087      17    3093    3090
      18    3102    3099      17    3105    3099      17    3105    3102      18
    3114    3111      17    3117    3111      17    3117    3114      18    3126
    3123      17    3129    3123      17    3129    3126      18    3138    3135
      17    3141    3135      17    3141    3138      18    3150    3147      17
    3153    3147      17    3153    3150      18    3162    3159      17    3165
    3159      17    3165    3162      18    3174    3171      17    3177    3171
      17    3177    3174      18    3186    3183      17    3189    3183      17
    3189    3186      18    3198    3195      17    3201    3195      17    3201
    3198      18    3210    3207      17    3213    3207      17    3213    3210
      18    3222    3219      17    3225    3219      17    3225    3222      18
    3234    3231      17    3237    3231      17    3237    3234      18    3246
    3243      17    3249    3243      17    3249    3246      18    3258    3255
      17    3261    3255      17    3261    3258      18    3270    3267      17
    3273    3267      17    3273    3270      18    3282    3279      17    3285
    3279      17    3285    3282      18    3294    3291      17    3297    3291
      17    3297    3294      18    3306    3303      17    3309    3303      17
    3309    3306      18    3318    3315      17    3321    3315      17    3321
    3318      18    3330    3327      17    3333    3327      17    3333    3330
      18    3342    3339      17    3345    3339      17    3345    3342      18
    3354    3351      17    3357    3351      17    3357    3354      18    3366
    3363      17    3369    3363      17    3369    3366      18    3378    3375
      17    3381    3375      17    3381    3378      18    3390    3387      17
    3393    3387      17    3393    3390      18    3402    3399      17    3405
    3399      17    3405    3402      18    3414    3411      17    3417    3411
      17    3417    3414      18    3426    3423      17    3429    3423      17
    3429    3426      18    3438    3435      17    3441    3435      17    3441
    3438      18    3450    3447      17    3453    3447      17    3453    3450
      18    3462    3459      17    3465    3459      17    3465    3462      18
    3474    3471      17    3477    3471      17    3477    3474      18    3486
    3483      17    3489    3483      17    3489    3486      18    3498    3495
      17    3501    3495      17    3501    3498      18    3510    3507      17
    3513    3507      17    3513    3510      18    3522    3519      17    3525
    3519      17    3525    3522      18    3534    3531      17    3537    3531
      17    3537    3534      18    3546    3543      17    3549    3543      17
    3549    3546      18    3558    3555      17    3561    3555      17    3561
    3558      18    3570    3567      17    3573    3567      17    3573    3570
      18    3582    3579      17    3585    3579      17    3585    3582      18
    3594    3591      17    3597    3591      17    3597    3594      18    3606
    3603      17    3609    3603      17    3609    3606      18    3618    3615
      17    3621    3615      17    3621    3618      18    3630    3627      17
    3633    3627      17    3633    3630      18    3642    3639      17    3645
    3639      17    3645    3642      18    3654    3651      17    3657    3651
      17    3657    3654      18    3666    3663      17    3669    3663      17
    3669    3666      18    3678    3675      17    3681    3675      17    3681
    3678      18    3690    3687      17    3693    3687      17    3693    3690
      18    3702    3699      17    3705    3699      17    3705    3702      18
    3714    3711      17    3717    3711      17    3717    3714      18    3726
    3723      17    3729    3723      17    3729    3726      18    3738    3735
      17    3741    3735      17    3741    3738      18    3750    3747      17
    3753    3747      17    3753    3750      18    3762    3759      17    3765
    3759      17    3765    3762      18    3774    3771      17    3777    3771
      17    3777    3774      18    3786    3783      17    3789    3783      17
    3789    3786      18    3798    3795      17    3801    3795      17    3801
    3798      18    3810    3807      17    3813    3807      17    3813    3810
      18    3822    3819      17    3825    3819      17    3825    3822      18
    3834    3831      17    3837    3831      17    3837    3834      18    3846
    3843      17    3849    3843      17    3849    3846      18    3858    3855
      17    3861    3855      17    3861    3858      18    3870    3867      17
    3873    3867      17    3873    3870      18    3882    3879      17    3885
    3879      17    3885    3882      18    3894    3891      17    3897    3891
      17    3897    3894      18    3906    3903      17    3909    3903      17
    3909    3906      18    3918    3915      17    3921    3915      17    3921
    3918      18    3930    3927      17    3933    3927      17    3933    3930
      18    3942    3939      17    3945    3939      17    3945    3942      18
    3954    3951      17    3957    3951      17    3957    3954      18    3966
    3963      17    3969    3963      17    3969    3966      18    3978    3975
      17    3981    3975      17    3981    3978      18    3990    3987      17
    3993    3987      17    3993    3990      18    4002    3999      17    4005
    3999      17    4005    4002      18    4014    4011      17    4017    4011
      17    4017    4014      18    4026    4023      17    4029    4023      17
    4029    4026      18    4038    4035      17    4041    4035      17    4041
    4038      18    4050    4047      17    4053    4047      17    4053    4050
      18    4062    4059      17    4065    4059      17    4065    4062      18
    4074    4071      17    4077    4071      17    4077    4074      18    4086
    4083      17    4089    4083      17    4089    4086      18    4098    4095
      17    4101    4095      17    4101    4098      18    4110    4107      17
    4113    4107      17    4113    4110      18    4122    4119      17    4125
    4119      17    4125    4122      18    4134    4131      17    4137    4131
      17    4137    4134      18    4146    4143      17    4149    4143      17
    4149    4146      18    4158    4155      17    4161    4155      17    4161
    4158      18    4170    4167      17    4173    4167      17    4173    4170
      18    4182    4179      17    4185    4179      17    4185    4182      18
    4194    4191      17    4197    4191      17    4197    4194      18    4206
    4203      17    4209    4203      17    4209    4206      18    4218    4215
      17    4221    4215      17    4221    4218      18    4230    4227      17
    4233    4227      17    4233    4230      18    4242    4239      17    4245
    4239      17    4245    4242      18    4254    4251      17    4257    4251
      17    4257    4254      18    4266    4263      17    4269    4263      17
    4269    4266      18    4278    4275      17    4281    4275      17    4281
    4278      18    4290    4287      17    4293    4287      17    4293    4290
      18    4302    4299      17    4305    4299      17    4305    4302      18
    4314    4311      17    4317    4311      17    4317    4314      18    4326
    4323      17    4329    4323      17    4329    4326      18    4338    4335
      17    4341    4335      17    4341    4338      18    4350    4347      17
    4353    4347      17    4353    4350      18    4362    4359      17    4365
    4359      17    4365    4362      18    4374    4371      17    4377    4371
      17    4377    4374      18    4386    4383      17    4389    4383      17
    4389    4386      18    4398    4395      17    4401    4395      17    4401
    4398      18    4410    4407      17    4413    4407      17    4413    4410
      18    4422    4419      17    4425    4419      17    4425    4422      18
    4434    4431      17    4437    4431      17    4437    4434      18    4446
    4443      17    4449    4443      17    4449    4446      18    4458    4455
      17    4461    4455      17    4461    4458      18    4470    4467      17
    4473    4467      17    4473    4470      18    4482    4479      17    4485
    4479      17    4485    4482      18    4494    4491      17    4497    4491
      17    4497    4494      18    4506    4503      17    4509    4503      17
    4509    4506      18    4518    4515      17    4521    4515      17    4521
    4518      18    4530    4527      17    4533    4527      17    4533    4530
      18    4542    4539      17    4545    4539      17    4545    4542      18
    4554    4551      17    4557    4551      17    4557    4554      18    4566
    4563      17    4569    4563      17    4569    4566      18    4578    4575
      17    4581    4575      17    4581    4578      18    4590    4587      17
    4593    4587      17    4593    4590      18    4602    4599      17    4605
    4599      17    4605    4602      18    4614    4611      17    4617    4611
      17    4617    4614      18    4626    4623      17    4629    4623      17
    4629    4626      18    4638    4635      17    4641    4635      17    4641
    4638      18    4650    4647      17    4653    4647      17    4653    4650
      18    4662    4659      17    4665    4659      17    4665    4662      18
    4674    4671      17    4677    4671      17    4677    4674      18    4686
    4683      17    4689    4683      17    4689    4686      18    4698    4695
      17    4701    4695      17    4701    4698      18    4710    4707      17
    4713    4707      17    4713    4710      18    4722    4719      17    4725
    4719      17    4725    4722      18    4734    4731      17    4737    4731
      17    4737    4734      18    4746    4743      17    4749    4743      17
    4749    4746      18    4758    4755      17    4761    4755      17    4761
    4758      18    4770    4767      17    4773    4767      17    4773    4770
      18    4782    4779      17    4785    4779      17    4785    4782      18
    4794    4791      17    4797    4791      17    4797    4794      18    4806
    4803      17    4809    4803      17    4809    4806      18    4818    4815
      17    4821    4815      17    4821    4818      18    4830    4827      17
    4833    4827      17    4833    4830      18    4842    4839      17    4845
    4839      17    4845    4842      18    4854    4851      17    4857    4851
      17    4857    4854      18    4866    4863      17    4869    4863      17
    4869    4866      18    4878    4875      17    4881    4875      17    4881
    4878      18    4890    4887      17    4893    4887      17    4893    4890
      18    4902    4899      17    4905    4899      17    4905    4902      18
    4914    4911      17    4917    4911      17    4917    4914      18    4926
    4923      17    4929    4923      17    4929    4926      18    4938    4935
      17    4941    4935      17    4941    4938      18    4950    4947      17
    4953    4947      17    4953    4950      18    4962    4959      17    4965
    4959      17    4965    4962      18    4974    4971      17    4977    4971
      17    4977    4974      18    4986    4983      17    4989    4983      17
    4989    4986      18    4998    4995      17    5001    4995      17    5001
    4998      18    5010    5007      17    5013    5007      17    5013    5010
      18    5022    5019      17    5025    5019      17    5025    5022      18
    5034    5031      17    5037    5031      17    5037    5034      18    5046
    5043      17    5049    5043      17    5049    5046      18    5058    5055
      17    5061    5055      17    5061    5058      18    5070    5067      17
    5073    5067      17    5073    5070      18    5082    5079      17    5085
    5079      17    5085    5082      18    5094    5091      17    5097    5091
      17    5097    5094      18    5106    5103      17    5109    5103      17
    5109    5106      18    5118    5115      17    5121    5115      17    5121
    5118      18    5130    5127      17    5133    5127      17    5133    5130
      18    5142    5139      17    5145    5139      17    5145    5142      18
    5154    5151      17    5157    5151      17    5157    5154      18    5166
    5163      17    5169    5163      17    5169    5166      18    5178    5175
      17    5181    5175      17    5181    5178      18    5190    5187      17
    5193    5187      17    5193    5190      18    5202    5199      17    5205
    5199      17    5205    5202      18    5214    5211      17    5217    5211
      17    5217    5214      18    5226    5223      17    5229    5223      17
    5229    5226      18    5238    5235      17    5241    5235      17    5241
    5238      18    5250    5247      17    5253    5247      17    5253    5250
      18    5262    5259      17    5265    5259      17    5265    5262      18
    5274    5271      17    5277    5271      17    5277    5274      18    5286
    5283      17    5289    5283      17    5289    5286      18    5298    5295
      17    5301    5295      17    5301    5298      18    5310    5307      17
    5313    5307      17    5313    5310      18    5322    5319      17    5325
    5319      17    5325    5322      18    5334    5331      17    5337    5331
      17    5337    5334      18    5346    5343      17    5349    5343      17
    5349    5346      18    5358    5355      17    5361    5355      17    5361
    5358      18    5370    5367      17    5373    5367      17    5373    5370
      18    5382    5379      17    5385    5379      17    5385    5382      18
    5394    5391      17    5397    5391      17    5397    5394      18    5406
    5403      17    5409    5403      17    5409    5406      18    5418    5415
      17    5421    5415      17    5421    5418      18    5430    5427      17
    5433    5427      17    5433    5430      18    5442    5439      17    5445
    5439      17    5445    5442      18    5454    5451      17    5457    5451
      17    5457    5454      18    5466    5463      17    5469    5463      17
    5469    5466      18    5478    5475      17    5481    5475      17    5481
    5478      18    5490    5487      17    5493    5487      17    5493    5490
      18    5502    5499      17    5505    5499      17    5505    5502      18
    5514    5511      17    5517    5511      17    5517    5514      18    5526
    5523      17    5529    5523      17    5529    5526      18    5538    5535
      17    5541    5535      17    5541    5538      18    5550    5547      17
    5553    5547      17    5553    5550      18    5562    5559      17    5565
    5559      17    5565    5562      18    5574    5571      17    5577    5571
      17    5577    5574      18    5586    5583      17    5589    5583      17
    5589    5586      18    5598    5595      17    5601    5595      17    5601
    5598      18    5610    5607      17    5613    5607      17    5613    5610
      18    5622    5619      17    5625    5619      17    5625    5622      18
    5634    5631      17    5637    5631      17    5637    5634      18    5646
    5643      17    5649    5643      17    5649    5646      18    5658    5655
      17    5661    5655      17    5661    5658      18    5670    5667      17
    5673    5667      17    5673    5670      18    5682    5679      17    5685
    5679      17    5685    5682      18    5694    5691      17    5697    5691
      17    5697    5694      18    5706    5703      17    5709    5703      17
    5709    5706      18    5718    5715      17    5721    5715      17    5721
    5718      18    5730    5727      17    5733    5727      17    5733    5730
      18    5742    5739      17    5745    5739      17    5745    5742      18
    5754    5751      17    5757    5751      17    5757    5754      18    5766
    5763      17    5769    5763      17    5769    5766      18    5778    5775
      17    5781    5775      17    5781    5778      18    5790    5787      17
    5793    5787      17    5793    5790      18    5802    5799      17    5805
    5799      17    5805    5802      18    5814    5811      17    5817    5811
      17    5817    5814      18    5826    5823      17    5829    5823      17
    5829    5826      18    5838    5835      17    5841    5835      17    5841
    5838      18    5850    5847      17    5853    5847      17    5853    5850
      18    5862    5859      17    5865    5859      17    5865    5862      18
    5874    5871      17    5877    5871      17    5877    5874      18    5886
    5883      17    5889    5883      17    5889    5886      18    5898    5895
      17    5901    5895      17    5901    5898      18    5910    5907      17
    5913    5907      17    5913    5910      18    5922    5919      17    5925
    5919      17    5925    5922      18    5934    5931      17    5937    5931
      17    5937    5934      18    5946    5943      17    5949    5943      17
    5949    5946      18    5958    5955      17    5961    5955      17    5961
    5958      18    5970    5967      17    5973    5967      17    5973    5970
      18    5982    5979      17    5985    5979      17    5985    5982      18
    5994    5991      17    5997    5991      17    5997    5994      18    6006
    6003      17    6009    6003      17    6009    6006      18    6018    6015
      17    6021    6015      17    6021    6018      18    6030    6027      17
    6033    6027      17    6033    6030      18    6042    6039      17    6045
    6039      17    6045    6042      18    6054    6051      17    6057    6051
      17    6057    6054      18    6066    6063      17    6069    6063      17
    6069    6066      18    6078    6075      17    6081    6075      17    6081
    6078      18    6090    6087      17    6093    6087      17    6093    6090
      18    6102    6099      17    6105    6099      17    6105    6102      18
    6114    6111      17    6117    6111      17    6117    6114      18    6126
    6123      17    6129    6123      17    6129    6126      18    6138    6135
      17    6141    6135      17    6141    6138      18    6150    6147      17
    6153    6147      17    6153    6150      18    6162    6159      17    6165
    6159      17    6165    6162      18    6174    6171      17    6177    6171
      17    6177    6174      18    6186    6183      17    6189    6183      17
    6189    6186      18    6198    6195      17    6201    6195      17    6201
    6198      18    6210    6207      17    6213    6207      17    6213    6210
      18    6222    6219      17    6225    6219      17    6225    6222      18
    6234    6231      17    6237    6231      17    6237    6234      18    6246
    6243      17    6249    6243      17    6249    6246      18    6258    6255
      17    6261    6255      17    6261    6258      18    6270    6267      17
    6273    6267      17    6273    6270      18    6282    6279      17    6285
    6279      17    6285    6282      18    6294    6291      17    6297    6291
      17    6297    6294      18    6306    6303      17    6309    6303      17
    6309    6306      18    6318    6315      17    6321    6315      17    6321
    6318      18    6330    6327      17    6333    6327      17    6333    6330
      18    6342    6339      17    6345    6339      17    6345    6342      18
    6354    6351      17    6357    6351      17    6357    6354      18    6366
    6363      17    6369    6363      17    6369    6366      18    6378    6375
      17    6381    6375      17    6381    6378      18    6390    6387      17
    6393    6387      17    6393    6390      18    6402    6399      17    6405
    6399      17    6405    6402      18    6414    6411      17    6417    6411
      17    6417    6414      18    6426    6423      17    6429    6423      17
    6429    6426      18    6438    6435      17    6441    6435      17    6441
    6438      18    6450    6447      17    6453    6447      17    6453    6450
      18    6462    6459      17    6465    6459      17    6465    6462      18
    6474    6471      17    6477    6471      17    6477    6474      18    6486
    6483      17    6489    6483      17    6489    6486      18    6498    6495
      17    6501    6495      17    6501    6498      18    6510    6507      17
    6513    6507      17    6513    6510      18    6522    6519      17    6525
    6519      17    6525    6522      18    6534    6531      17    6537    6531
      17    6537    6534      18    6546    6543      17    6549    6543      17
    6549    6546      18    6558    6555      17    6561    6555      17    6561
    6558      18    6570    6567      17    6573    6567      17    6573    6570
      18    6582    6579      17    6585    6579      17    6585    6582      18
    6594    6591      17    6597    6591      17    6597    6594      18    6606
    6603      17    6609    6603      17    6609    6606      18    6618    6615
      17    6621    6615      17    6621    6618      18    6630    6627      17
    6633    6627      17    6633    6630      18    6642    6639      17    6645
    6639      17    6645    6642      18    6654    6651      17    6657    6651
      17    6657    6654      18    6666    6663      17    6669    6663      17
    6669    6666      18    6678    6675      17    6681    6675      17    6681
    6678      18    6690    6687      17    6693    6687      17    6693    6690
      18    6702    6699      17    6705    6699      17    6705    6702      18
    6714    6711      17    6717    6711      17    6717    6714      18    6726
    6723      17    6729    6723      17    6729    6726      18    6738    6735
      17    6741    6735      17    6741    6738      18    6750    6747      17
    6753    6747      17    6753    6750      18    6762    6759      17    6765
    6759      17    6765    6762      18    6774    6771      17    6777    6771
      17    6777    6774      18    6786    6783      17    6789    6783      17
    6789    6786      18    6798    6795      17    6801    6795      17    6801
    6798      18    6810    6807      17    6813    6807      17    6813    6810
      18    6822    6819      17    6825    6819      17    6825    6822      18
    6834    6831      17    6837    6831      17    6837    6834      18    6846
    6843      17    6849    6843      17    6849    6846      18    6858    6855
      17    6861    6855      17    6861    6858      18    6870    6867      17
    6873    6867      17    6873    6870      18    6882    6879      17    6885
    6879      17    6885    6882      18    6894    6891      17    6897    6891
      17    6897    6894      18    6906    6903      17    6909    6903      17
    6909    6906      18    6918    6915      17    6921    6915      17    6921
    6918      18    6930    6927      17    6933    6927      17    6933    6930
      18    6942    6939      17    6945    6939      17    6945    6942      18
    6954    6951      17    6957    6951      17    6957    6954      18    6966
    6963      17    6969    6963      17    6969    6966      18    6978    6975
      17    6981    6975      17    6981    6978      18    6990    6987      17
    6993    6987      17    6993    6990      18    7002    6999      17    7005
    6999      17    7005    7002      18    7014    7011      17    7017    7011
      17    7017    7014      18    7026    7023      17    7029    7023      17
    7029    7026      18    7038    7035      17    7041    7035      17    7041
    7038      18    7050    7047      17    7053    7047      17    7053    7050
      18    7062    7059      17    7065    7059      17    7065    7062      18
    7074    7071      17    7077    7071      17    7077    7074      18    7086
    7083      17    7089    7083      17    7089    7086      18    7098    7095
      17    7101    7095      17    7101    7098      18    7110    7107      17
    7113    7107      17    7113    7110      18    7122    7119      17    7125
    7119      17    7125    7122      18    7134    7131      17    7137    7131
      17    7137    7134      18    7146    7143      17    7149    7143      17
    7149    7146      18    7158    7155      17    7161    7155      17    7161
    7158      18    7170    7167      17    7173    7167      17    7173    7170
      18    7182    7179      17    7185    7179      17    7185    7182      18
    7194    7191      17    7197    7191      17    7197    7194      18    7206
    7203      17    7209    7203      17    7209    7206      18    7218    7215
      17    7221    7215      17    7221    7218      18    7230    7227      17
    7233    7227      17    7233    7230      18    7242    7239      17    7245
    7239      17    7245    7242      18    7254    7251      17    7257    7251
      17    7257    7254      18    7266    7263      17    7269    7263      17
    7269    7266      18    7278    7275      17    7281    7275      17    7281
    7278      18    7290    7287      17    7293    7287      17    7293    7290
      18    7302    7299      17    7305    7299      17    7305    7302      18
    7314    7311      17    7317    7311      17    7317    7314      18    7326
    7323      17    7329    7323      17    7329    7326      18    7338    7335
      17    7341    7335      17    7341    7338      18    7350    7347      17
    7353    7347      17    7353    7350      18    7362    7359      17    7365
    7359      17    7365    7362      18    7374    7371      17    7377    7371
      17    7377    7374      18    7386    7383      17    7389    7383      17
    7389    7386      18    7398    7395      17    7401    7395      17    7401
    7398      18    7410    7407      17    7413    7407      17    7413    7410
      18    7422    7419      17    7425    7419      17    7425    7422      18
    7434    7431      17    7437    7431      17    7437    7434      18    7446
    7443      17    7449    7443      17    7449    7446      18    7458    7455
      17    7461    7455      17    7461    7458      18    7470    7467      17
    7473    7467      17    7473    7470      18    7482    7479      17    7485
    7479      17    7485    7482      18    7494    7491      17    7497    7491
      17    7497    7494      18    7506    7503      17    7509    7503      17
    7509    7506      18    7518    7515      17    7521    7515      17    7521
    7518      18    7530    7527      17    7533    7527      17    7533    7530
      18    7542    7539      17    7545    7539      17    7545    7542      18
    7554    7551      17    7557    7551      17    7557    7554      18    7566
    7563      17    7569    7563      17    7569    7566      18    7578    7575
      17    7581    7575      17    7581    7578      18    7590    7587      17
    7593    7587      17    7593    7590      18    7602    7599      17    7605
    7599      17    7605    7602      18    7614    7611      17    7617    7611
      17    7617    7614      18    7626    7623      17    7629    7623      17
    7629    7626      18    7638    7635      17    7641    7635      17    7641
    7638      18    7650    7647      17    7653    7647      17    7653    7650
      18    7662    7659      17    7665    7659      17    7665    7662      18
    7674    7671      17    7677    7671      17    7677    7674      18    7686
    7683      17    7689    7683      17    7689    7686      18    7698    7695
      17    7701    7695      17    7701    7698      18    7710    7707      17
    7713    7707      17    7713    7710      18    7722    7719      17    7725
    7719      17    7725    7722      18    7734    7731      17    7737    7731
      17    7737    7734      18    7746    7743      17    7749    7743      17
    7749    7746      18    7758    7755      17    7761    7755      17    7761
    7758      18    7770    7767      17    7773    7767      17    7773    7770
      18    7782    7779      17    7785    7779      17    7785    7782      18
    7794    7791      17    7797    7791      17    7797    7794      18    7806
    7803      17    7809    7803      17    7809    7806      18    7818    7815
      17    7821    7815      17    7821    7818      18    7830    7827      17
    7833    7827      17    7833    7830      18    7842    7839      17    7845
    7839      17    7845    7842      18    7854    7851      17    7857    7851
      17    7857    7854      18    7866    7863      17    7869    7863      17
    7869    7866      18    7878    7875      17    7881    7875      17    7881
    7878      18    7890    7887      17    7893    7887      17    7893    7890
      18    7902    7899      17    7905    7899      17    7905    7902      18
    7914    7911      17    7917    7911      17    7917    7914      18    7926
    7923      17    7929    7923      17    7929    7926      18    7938    7935
      17    7941    7935      17    7941    7938      18    7950    7947      17
    7953    7947      17    7953    7950      18    7962    7959      17    7965
    7959      17    7965    7962      18    7974    7971      17    7977    7971
      17    7977    7974      18    7986    7983      17    7989    7983      17
    7989    7986      18    7998    7995      17    8001    7995      17    8001
    7998      18    8010    8007      17    8013    8007      17    8013    8010
      18    8022    8019      17    8025    8019      17    8025    8022      18
    8034    8031      17    8037    8031      17    8037    8034      18    8046
    8043      17    8049    8043      17    8049    8046      18    8058    8055
      17    8061    8055      17    8061    8058      18    8070    8067      17
    8073    8067      17    8073    8070      18    8082    8079      17    8085
    8079      17    8085    8082      18    8094    8091      17    8097    8091
      17    8097    8094      18    8106    8103      17    8109    8103      17
    8109    8106      18    8118    8115      17    8121    8115      17    8121
    8118      18    8130    8127      17    8133    8127      17    8133    8130
      18    8142    8139      17    8145    8139      17    8145    8142      18
    8154    8151      17    8157    8151      17    8157    8154      18    8166
    8163      17    8169    8163      17    8169    8166      18    8178    8175
      17    8181    8175      17    8181    8178      18    8190    8187      17
    8193    8187      17    8193    8190      18    8202    8199      17    8205
    8199      17    8205    8202      18    8214    8211      17    8217    8211
      17    8217    8214      18    8226    8223      17    8229    8223      17
    8229    8226      18    8238    8235      17    8241    8235      17    8241
    8238      18    8250    8247      17    8253    8247      17    8253    8250
      18    8262    8259      17    8265    8259      17    8265    8262      18
    8274    8271      17    8277    8271      17    8277    8274      18    8286
    8283      17    8289    8283      17    8289    8286      18    8298    8295
      17    8301    8295      17    8301    8298      18    8310    8307      17
    8313    8307      17    8313    8310      18    8322    8319      17    8325
    8319      17    8325    8322      18    8334    8331      17    8337    8331
      17    8337    8334      18    8346    8343      17    8349    8343      17
    8349    8346      18    8358    8355      17    8361    8355      17    8361
    8358      18    8370    8367      17    8373    8367      17    8373    8370
      18    8382    8379      17    8385    8379      17    8385    8382      18
    8394    8391      17    8397    8391      17    8397    8394      18    8406
    8403      17    8409    8403      17    8409    8406      18    8418    8415
      17    8421    8415      17    8421    8418      18    8430    8427      17
    8433    8427      17    8433    8430      18    8442    8439      17    8445
    8439      17    8445    8442      18    8454    8451      17    8457    8451
      17    8457    8454      18    8466    8463      17    8469    8463      17
    8469    8466      18    8478    8475      17    8481    8475      17    8481
    8478      18    8490    8487      17    8493    8487      17    8493    8490
      18    8502    8499      17    8505    8499      17    8505    8502      18
    8514    8511      17    8517    8511      17    8517    8514      18    8526
    8523      17    8529    8523      17    8529    8526      18    8538    8535
      17    8541    8535      17    8541    8538      18    8550    8547      17
    8553    8547      17    8553    8550      18    8562    8559      17    8565
    8559      17    8565    8562      18    8574    8571      17    8577    8571
      17    8577    8574      18    8586    8583      17    8589    8583      17
    8589    8586      18    8598    8595      17    8601    8595      17    8601
    8598      18    8610    8607      17    8613    8607      17    8613    8610
      18    8622    8619      17    8625    8619      17    8625    8622      18
    8634    8631      17    8637    8631      17    8637    8634      18    8646
    8643      17    8649    8643      17    8649    8646      18    8658    8655
      17    8661    8655      17    8661    8658      18    8670    8667      17
    8673    8667      17    8673    8670      18    8682    8679      17    8685
    8679      17    8685    8682      18    8694    8691      17    8697    8691
      17    8697    8694      18    8706    8703      17    8709    8703      17
    8709    8706      18    8718    8715      17    8721    8715      17    8721
    8718      18    8730    8727      17    8733    8727      17    8733    8730
      18    8742    8739      17    8745    8739      17    8745    8742      18
    8754    8751      17    8757    8751      17    8757    8754      18    8766
    8763      17    8769    8763      17    8769    8766      18    8778    8775
      17    8781    8775      17    8781    8778      18    8790    8787      17
    8793    8787      17    8793    8790      18    8802    8799      17    8805
    8799      17    8805    8802      18    8814    8811      17    8817    8811
      17    8817    8814      18    8826    8823      17    8829    8823      17
    8829    8826      18    8838    8835      17    8841    8835      17    8841
    8838      18    8850    8847      17    8853    8847      17    8853    8850
      18    8862    8859      17    8865    8859      17    8865    8862      18
    8874    8871      17    8877    8871      17    8877    8874      18    8886
    8883      17    8889    8883      17    8889    8886      18    8898    8895
      17    8901    8895      17    8901    8898      18    8910    8907      17
    8913    8907      17    8913    8910      18    8922    8919      17    8925
    8919      17    8925    8922      18    8934    8931      17    8937    8931
      17    8937    8934      18    8946    8943      17    8949    8943      17
    8949    8946      18    8958    8955      17    8961    8955      17    8961
    8958      18    8970    8967      17    8973    8967      17    8973    8970
      18    8982    8979      17    8985    8979      17    8985    8982      18
    8994    8991      17    8997    8991      17    8997    8994      18    9006
    9003      17    9009    9003      17    9009    9006      18    9018    9015
      17    9021    9015      17    9021    9018      18    9030    9027      17
    9033    9027      17    9033    9030      18    9042    9039      17    9045
    9039      17    9045    9042      18    9054    9051      17    9057    9051
      17    9057    9054      18    9066    9063      17    9069    9063      17
    9069    9066      18    9078    9075      17    9081    9075      17    9081
    9078      18    9090    9087      17    9093    9087      17    9093    9090
      18    9102    9099      17    9105    9099      17    9105    9102      18
    9114    9111      17    9117    9111      17    9117    9114      18    9126
    9123      17    9129    9123      17    9129    9126      18    9138    9135
      17    9141    9135      17    9141    9138      18    9150    9147      17
    9153    9147      17    9153    9150      18    9162    9159      17    9165
    9159      17    9165    9162      18    9174    9171      17    9177    9171
      17    9177    9174      18    9186    9183      17    9189    9183      17
    9189    9186      18    9198    9195      17    9201    9195      17    9201
    9198      18    9210    9207      17    9213    9207      17    9213    9210
      18    9222    9219      17    9225    9219      17    9225    9222      18
    9234    9231      17    9237    9231      17    9237    9234      18    9246
    9243      17    9249    9243      17    9249    9246      18    9258    9255
      17    9261    9255      17    9261    9258      18    9270    9267      17
    9273    9267      17    9273    9270      18    9282    9279      17    9285
    9279      17    9285    9282      18    9294    9291      17    9297    9291
      17    9297    9294      18    9306    9303      17    9309    9303      17
    9309    9306      18    9318    9315      17    9321    9315      17    9321
    9318      18    9330    9327      17    9333    9327      17    9333    9330
      18    9342    9339      17    9345    9339      17    9345    9342      18
    9354    9351      17    9357    9351      17    9357    9354      18    9366
    9363      17    9369    9363      17    9369    9366      18    9378    9375
      17    9381    9375      17    9381    9378      18    9390    9387      17
    9393    9387      17    9393    9390      18    9402    9399      17    9405
    9399      17    9405    9402      18    9414    9411      17    9417    9411
      17    9417    9414      18    9426    9423      17    9429    9423      17
    9429    9426      18    9438    9435      17    9441    9435      17    9441
    9438      18    9450    9447      17    9453    9447      17    9453    9450
      18    9462    9459      17    9465    9459      17    9465    9462      18
    9474    9471      17    9477    9471      17    9477    9474      18    9486
    9483      17    9489    9483      17    9489    9486      18    9498    9495
      17    9501    9495      17    9501    9498      18    9510    9507      17
    9513    9507      17    9513    9510      18    9522    9519      17    9525
    9519      17    9525    9522      18    9534    9531      17    9537    9531
      17    9537    9534      18    9546    9543      17    9549    9543      17
    9549    9546      18    9558    9555      17    9561    9555      17    9561
    9558      18    9570    9567      17    9573    9567      17    9573    9570
      18    9582    9579      17    9585    9579      17    9585    9582      18
    9594    9591      17    9597    9591      17    9597    9594      18    9606
    9603      17    9609    9603      17    9609    9606      18    9618    9615
      17    9621    9615      17    9621    9618      18    9630    9627      17
    9633    9627      17    9633    9630      18    9642    9639      17    9645
    9639      17    9645    9642      18    9654    9651      17    9657    9651
      17    9657    9654      18    9666    9663      17    9669    9663      17
    9669    9666      18    9678    9675      17    9681    9675      17    9681
    9678      18    9690    9687      17    9693    9687      17    9693    9690
      18    9702    9699      17    9705    9699      17    9705    9702      18
    9714    9711      17    9717    9711      17    9717    9714      18    9726
    9723      17    9729    9723      17    9729    9726      18    9738    9735
      17    9741    9735      17    9741    9738      18    9750    9747      17
    9753    9747      17    9753    9750      18    9762    9759      17    9765
    9759      17    9765    9762      18    9774    9771      17    9777    9771
      17    9777    9774      18    9786    9783      17    9789    9783      17
    9789    9786      18    9798    9795      17    9801    9795      17    9801
    9798      18    9810    9807      17    9813    9807      17    9813    9810
      18    9822    9819      17    9825    9819      17    9825    9822      18
    9834    9831      17    9837    9831      17    9837    9834      18    9846
    9843      17    9849    9843      17    9849    9846      18    9858    9855
      17    9861    9855      17    9861    9858      18    9870    9867      17
    9873    9867      17    9873    9870      18    9882    9879      17    9885
    9879      17    9885    9882      18    9894    9891      17    9897    9891
      17    9897    9894      18    9906    9903      17    9909    9903      17
    9909    9906      18    9918    9915      17    9921    9915      17    9921
    9918      18    9930    9927      17    9933    9927      17    9933    9930
      18    9942    9939      17    9945    9939      17    9945    9942      18
    9954    9951      17    9957    9951      17    9957    9954      18    9966
    9963      17    9969    9963      17    9969    9966      18    9978    9975
      17    9981    9975      17    9981    9978      18    9990    9987      17
    9993    9987      17    9993    9990      18   10002    9999      17   10005
    9999      17   10005   10002      18   10014   10011      17   10017   10011
      17   10017   10014      18   10026   10023      17   10029   10023      17
   10029   10026      18   10038   10035      17   10041   10035      17   10041
   10038      18   10050   10047      17   10053   10047      17   10053   10050
      18   10062   10059      17   10065   10059      17   10065   10062      18
   10074   10071      17   10077   10071      17   10077   10074      18   10086
   10083      17   10089   10083      17   10089   10086      18   10098   10095
      17   10101   10095      17   10101   10098      18   10110   10107      17
   10113   10107      17   10113   10110      18   10122   10119      17   10125
   10119      17   10125   10122      18   10134   10131      17   10137   10131
      17   10137   10134      18   10146   10143      17   10149   10143      17
   10149   10146      18   10158   10155      17   10161   10155      17   10161
   10158      18   10170   10167      17   10173   10167      17   10173   10170
      18   10182   10179      17   10185   10179      17   10185   10182      18
   10194   10191      17   10197   10191      17   10197   10194      18   10206
   10203      17   10209   10203      17   10209   10206      18   10218   10215
      17   10221   10215      17   10221   10218      18   10230   10227      17
   10233   10227      17   10233   10230      18   10242   10239      17   10245
   10239      17   10245   10242      18   10254   10251      17   10257   10251
      17   10257   10254      18   10266   10263      17   10269   10263      17
   10269   10266      18   10278   10275      17   10281   10275      17   10281
   10278      18   10290   10287      17   10293   10287      17   10293   10290
      18   10302   10299      17   10305   10299      17   10305   10302      18
   10314   10311      17   10317   10311      17   10317   10314      18   10326
   10323      17   10329   10323      17   10329   10326      18   10338   10335
      17   10341   10335      17   10341   10338      18   10350   10347      17
   10353   10347      17   10353   10350      18   10362   10359      17   10365
   10359      17   10365   10362      18   10374   10371      17   10377   10371
      17   10377   10374      18   10386   10383      17   10389   10383      17
   10389   10386      18   10398   10395      17   10401   10395      17   10401
   10398      18   10410   10407      17   10413   10407      17   10413   10410
      18   10422   10419      17   10425   10419      17   10425   10422      18
   10434   10431      17   10437   10431      17   10437   10434      18   10446
   10443      17   10449   10443      17   10449   10446      18   10458   10455
      17   10461   10455      17   10461   10458      18   10470   10467      17
   10473   10467      17   10473   10470      18   10482   10479      17   10485
   10479      17   10485   10482      18   10494   10491      17   10497   10491
      17   10497   10494      18   10506   10503      17   10509   10503      17
   10509   10506      18   10518   10515      17   10521   10515      17   10521
   10518      18   10530   10527      17   10533   10527      17   10533   10530
      18   10542   10539      17   10545   10539      17   10545   10542      18
   10554   10551      17   10557   10551      17   10557   10554      18   10566
   10563      17   10569   10563      17   10569   10566      18   10578   10575
      17   10581   10575      17   10581   10578      18   10590   10587      17
   10593   10587      17   10593   10590      18   10602   10599      17   10605
   10599      17   10605   10602      18   10614   10611      17   10617   10611
      17   10617   10614      18   10626   10623      17   10629   10623      17
   10629   10626      18   10638   10635      17   10641   10635      17   10641
   10638      18   10650   10647      17   10653   10647      17   10653   10650
      18   10662   10659      17   10665   10659      17   10665   10662      18
   10674   10671      17   10677   10671      17   10677   10674      18   10686
   10683      17   10689   10683      17   10689   10686      18   10698   10695
      17   10701   10695      17   10701   10698      18   10710   10707      17
   10713   10707      17   10713   10710      18   10722   10719      17   10725
   10719      17   10725   10722      18   10734   10731      17   10737   10731
      17   10737   10734      18   10746   10743      17   10749   10743      17
   10749   10746      18   10758   10755      17   10761   10755      17   10761
   10758      18   10770   10767      17   10773   10767      17   10773   10770
      18   10782   10779      17   10785   10779      17   10785   10782      18
   10794   10791      17   10797   10791      17   10797   10794      18   10806
   10803      17   10809   10803      17   10809   10806      18   10818   10815
      17   10821   10815      17   10821   10818      18   10830   10827      17
   10833   10827      17   10833   10830      18   10842   10839      17   10845
   10839      17   10845   10842      18   10854   10851      17   10857   10851
      17   10857   10854      18   10866   10863      17   10869   10863      17
   10869   10866      18   10878   10875      17   10881   10875      17   10881
   10878      18   10890   10887      17   10893   10887      17   10893   10890
      18   10902   10899      17   10905   10899      17   10905   10902      18
   10914   10911      17   10917   10911      17   10917   10914      18   10926
   10923      17   10929   10923      17   10929   10926      18   10938   10935
      17   10941   10935      17   10941   10938      18   10950   10947      17
   10953   10947      17   10953   10950      18   10962   10959      17   10965
   10959      17   10965   10962      18   10974   10971      17   10977   10971
      17   10977   10974      18   10986   10983      17   10989   10983      17
   10989   10986      18   10998   10995      17   11001   10995      17   11001
   10998      18   11010   11007      17   11013   11007      17   11013   11010
      18   11022   11019      17   11025   11019      17   11025   11022      18
   11034   11031      17   11037   11031      17   11037   11034      18   11046
   11043      17   11049   11043      17   11049   11046      18   11058   11055
      17   11061   11055      17   11061   11058      18   11070   11067      17
   11073   11067      17   11073   11070      18   11082   11079      17   11085
   11079      17   11085   11082      18   11094   11091      17   11097   11091
      17   11097   11094      18   11106   11103      17   11109   11103      17
   11109   11106      18   11118   11115      17   11121   11115      17   11121
   11118      18   11130   11127      17   11133   11127      17   11133   11130
      18   11142   11139      17   11145   11139      17   11145   11142      18
   11154   11151      17   11157   11151      17   11157   11154      18   11166
   11163      17   11169   11163      17   11169   11166      18   11178   11175
      17   11181   11175      17   11181   11178      18   11190   11187      17
   11193   11187      17   11193   11190      18   11202   11199      17   11205
   11199      17   11205   11202      18   11214   11211      17   11217   11211
      17   11217   11214      18   11226   11223      17   11229   11223      17
   11229   11226      18   11238   11235      17   11241   11235      17   11241
   11238      18   11250   11247      17   11253   11247      17   11253   11250
      18   11262   11259      17   11265   11259      17   11265   11262      18
   11274   11271      17   11277   11271      17   11277   11274      18   11286
   11283      17   11289   11283      17   11289   11286      18   11298   11295
      17   11301   11295      17   11301   11298      18   11310   11307      17
   11313   11307      17   11313   11310      18   11322   11319      17   11325
   11319      17   11325   11322      18   11334   11331      17   11337   11331
      17   11337   11334      18   11346   11343      17   11349   11343      17
   11349   11346      18   11358   11355      17   11361   11355      17   11361
   11358      18   11370   11367      17   11373   11367      17   11373   11370
      18   11382   11379      17   11385   11379      17   11385   11382      18
   11394   11391      17   11397   11391      17   11397   11394      18   11406
   11403      17   11409   11403      17   11409   11406      18   11418   11415
      17   11421   11415      17   11421   11418      18   11430   11427      17
   11433   11427      17   11433   11430      18   11442   11439      17   11445
   11439      17   11445   11442      18   11454   11451      17   11457   11451
      17   11457   11454      18   11466   11463      17   11469   11463      17
   11469   11466      18   11478   11475      17   11481   11475      17   11481
   11478      18   11490   11487      17   11493   11487      17   11493   11490
      18   11502   11499      17   11505   11499      17   11505   11502      18
   11514   11511      17   11517   11511      17   11517   11514      18   11526
   11523      17   11529   11523      17   11529   11526      18   11538   11535
      17   11541   11535      17   11541   11538      18   11550   11547      17
   11553   11547      17   11553   11550      18   11562   11559      17   11565
   11559      17   11565   11562      18   11574   11571      17   11577   11571
      17   11577   11574      18   11586   11583      17   11589   11583      17
   11589   11586      18   11598   11595      17   11601   11595      17   11601
   11598      18   11610   11607      17   11613   11607      17   11613   11610
      18   11622   11619      17   11625   11619      17   11625   11622      18
   11634   11631      17   11637   11631      17   11637   11634      18   11646
   11643      17   11649   11643      17   11649   11646      18   11658   11655
      17   11661   11655      17   11661   11658      18   11670   11667      17
   11673   11667      17   11673   11670      18   11682   11679      17   11685
   11679      17   11685   11682      18   11694   11691      17   11697   11691
      17   11697   11694      18   11706   11703      17   11709   11703      17
   11709   11706      18   11718   11715      17   11721   11715      17   11721
   11718      18   11730   11727      17   11733   11727      17   11733   11730
      18   11742   11739      17   11745   11739      17   11745   11742      18
   11754   11751      17   11757   11751      17   11757   11754      18   11766
   11763      17   11769   11763      17   11769   11766      18   11778   11775
      17   11781   11775      17   11781   11778      18   11790   11787      17
   11793   11787      17   11793   11790      18   11802   11799      17   11805
   11799      17   11805   11802      18   11814   11811      17   11817   11811
      17   11817   11814      18   11826   11823      17   11829   11823      17
   11829   11826      18   11838   11835      17   11841   11835      17   11841
   11838      18   11850   11847      17   11853   11847      17   11853   11850
      18   11862   11859      17   11865   11859      17   11865   11862      18
   11874   11871      17   11877   11871      17   11877   11874      18   11886
   11883      17   11889   11883      17   11889   11886      18   11898   11895
      17   11901   11895      17   11901   11898      18   11910   11907      17
   11913   11907      17   11913   11910      18   11922   11919      17   11925
   11919      17   11925   11922      18   11934   11931      17   11937   11931
      17   11937   11934      18   11946   11943      17   11949   11943      17
   11949   11946      18   11958   11955      17   11961   11955      17   11961
   11958      18   11970   11967      17   11973   11967      17   11973   11970
      18   11982   11979      17   11985   11979      17   11985   11982      18
   11994   11991      17   11997   11991      17   11997   11994      18   12006
   12003      17   12009   12003      17   12009   12006      18   12018   12015
      17   12021   12015      17   12021   12018      18   12030   12027      17
   12033   12027      17   12033   12030      18   12042   12039      17   12045
   12039      17   12045   12042      18   12054   12051      17   12057   12051
      17   12057   12054      18   12066   12063      17   12069   12063      17
   12069   12066      18   12078   12075      17   12081   12075      17   12081
   12078      18   12090   12087      17   12093   12087      17   12093   12090
      18   12102   12099      17   12105   12099      17   12105   12102      18
   12114   12111      17   12117   12111      17   12117   12114      18   12126
   12123      17   12129   12123      17   12129   12126      18   12138   12135
      17   12141   12135      17   12141   12138      18   12150   12147      17
   12153   12147      17   12153   12150      18   12162   12159      17   12165
   12159      17   12165   12162      18   12174   12171      17   12177   12171
      17   12177   12174      18   12186   12183      17   12189   12183      17
   12189   12186      18   12198   12195      17   12201   12195      17   12201
   12198      18   12210   12207      17   12213   12207      17   12213   12210
      18   12222   12219      17   12225   12219      17   12225   12222      18
   12234   12231      17   12237   12231      17   12237   12234      18   12246
   12243      17   12249   12243      17   12249   12246      18   12258   12255
      17   12261   12255      17   12261   12258      18   12270   12267      17
   12273   12267      17   12273   12270      18   12282   12279      17   12285
   12279      17   12285   12282      18   12294   12291      17   12297   12291
      17   12297   12294      18   12306   12303      17   12309   12303      17
   12309   12306      18   12318   12315      17   12321   12315      17   12321
   12318      18   12330   12327      17   12333   12327      17   12333   12330
      18   12342   12339      17   12345   12339      17   12345   12342      18
   12354   12351      17   12357   12351      17   12357   12354      18   12366
   12363      17   12369   12363      17   12369   12366      18   12378   12375
      17   12381   12375      17   12381   12378      18   12390   12387      17
   12393   12387      17   12393   12390      18   12402   12399      17   12405
   12399      17   12405   12402      18   12414   12411      17   12417   12411
      17   12417   12414      18   12426   12423      17   12429   12423      17
   12429   12426      18   12438   12435      17   12441   12435      17   12441
   12438      18   12450   12447      17   12453   12447      17   12453   12450
      18   12462   12459      17   12465   12459      17   12465   12462      18
   12474   12471      17   12477   12471      17   12477   12474      18   12486
   12483      17   12489   12483      17   12489   12486      18   12498   12495
      17   12501   12495      17   12501   12498      18   12510   12507      17
   12513   12507      17   12513   12510      18   12522   12519      17   12525
   12519      17   12525   12522      18   12534   12531      17   12537   12531
      17   12537   12534      18   12546   12543      17   12549   12543      17
   12549   12546      18   12558   12555      17   12561   12555      17   12561
   12558      18   12570   12567      17   12573   12567      17   12573   12570
      18   12582   12579      17   12585   12579      17   12585   12582      18
   12594   12591      17   12597   12591      17   12597   12594      18   12606
   12603      17   12609   12603      17   12609   12606      18   12618   12615
      17   12621   12615      17   12621   12618      18   12630   12627      17
   12633   12627      17   12633   12630      18   12642   12639      17   12645
   12639      17   12645   12642      18   12654   12651      17   12657   12651
      17   12657   12654      18   12666   12663      17   12669   12663      17
   12669   12666      18   12678   12675      17   12681   12675      17   12681
   12678      18   12690   12687      17   12693   12687      17   12693   12690
      18   12702   12699      17   12705   12699      17   12705   12702      18
   12714   12711      17   12717   12711      17   12717   12714      18   12726
   12723      17   12729   12723      17   12729   12726      18   12738   12735
      17   12741   12735      17   12741   12738      18   12750   12747      17
   12753   12747      17   12753   12750      18   12762   12759      17   12765
   12759      17   12765   12762      18   12774   12771      17   12777   12771
      17   12777   12774      18   12786   12783      17   12789   12783      17
   12789   12786      18   12798   12795      17   12801   12795      17   12801
   12798      18   12810   12807      17   12813   12807      17   12813   12810
      18   12822   12819      17   12825   12819      17   12825   12822      18
   12834   12831      17   12837   12831      17   12837   12834      18   12846
   12843      17   12849   12843      17   12849   12846      18   12858   12855
      17   12861   12855      17   12861   12858      18   12870   12867      17
   12873   12867      17   12873   12870      18   12882   12879      17   12885
   12879      17   12885   12882      18   12894   12891      17   12897   12891
      17   12897   12894      18   12906   12903      17   12909   12903      17
   12909   12906      18   12918   12915      17   12921   12915      17   12921
   12918      18   12930   12927      17   12933   12927      17   12933   12930
      18   12942   12939      17   12945   12939      17   12945   12942      18
   12954   12951      17   12957   12951      17   12957   12954      18   12966
   12963      17   12969   12963      17   12969   12966      18   12978   12975
      17   12981   12975      17   12981   12978      18   12990   12987      17
   12993   12987      17   12993   12990      18   13002   12999      17   13005
   12999      17   13005   13002      18   13014   13011      17   13017   13011
      17   13017   13014      18   13026   13023      17   13029   13023      17
   13029   13026      18   13038   13035      17   13041   13035      17   13041
   13038      18   13050   13047      17   13053   13047      17   13053   13050
      18   13062   13059      17   13065   13059      17   13065   13062      18
   13074   13071      17   13077   13071      17   13077   13074      18   13086
   13083      17   13089   13083      17   13089   13086      18   13098   13095
      17   13101   13095      17   13101   13098      18   13110   13107      17
   13113   13107      17   13113   13110      18   13122   13119      17   13125
   13119      17   13125   13122      18   13134   13131      17   13137   13131
      17   13137   13134      18   13146   13143      17   13149   13143      17
   13149   13146      18   13158   13155      17   13161   13155      17   13161
   13158      18   13170   13167      17   13173   13167      17   13173   13170
      18   13182   13179      17   13185   13179      17   13185   13182      18
   13194   13191      17   13197   13191      17   13197   13194      18   13206
   13203      17   13209   13203      17   13209   13206      18   13218   13215
      17   13221   13215      17   13221   13218      18   13230   13227      17
   13233   13227      17   13233   13230      18   13242   13239      17   13245
   13239      17   13245   13242      18   13254   13251      17   13257   13251
      17   13257   13254      18   13266   13263      17   13269   13263      17
   13269   13266      18   13278   13275      17   13281   13275      17   13281
   13278      18   13290   13287      17   13293   13287      17   13293   13290
      18   13302   13299      17   13305   13299      17   13305   13302      18
   13314   13311      17   13317   13311      17   13317   13314      18   13326
   13323      17   13329   13323      17   13329   13326      18   13338   13335
      17   13341   13335      17   13341   13338      18   13350   13347      17
   13353   13347      17   13353   13350      18   13362   13359      17   13365
   13359      17   13365   13362      18   13374   13371      17   13377   13371
      17   13377   13374      18   13386   13383      17   13389   13383      17
   13389   13386      18   13398   13395      17   13401   13395      17   13401
   13398      18   13410   13407      17   13413   13407      17   13413   13410
      18   13422   13419      17   13425   13419      17   13425   13422      18
   13434   13431      17   13437   13431      17   13437   13434      18   13446
   13443      17   13449   13443      17   13449   13446      18   13458   13455
      17   13461   13455      17   13461   13458      18   13470   13467      17
   13473   13467      17   13473   13470      18   13482   13479      17   13485
   13479      17   13485   13482      18   13494   13491      17   13497   13491
      17   13497   13494      18   13506   13503      17   13509   13503      17
   13509   13506      18   13518   13515      17   13521   13515      17   13521
   13518      18   13530   13527      17   13533   13527      17   13533   13530
      18   13542   13539      17   13545   13539      17   13545   13542      18
   13554   13551      17   13557   13551      17   13557   13554      18   13566
   13563      17   13569   13563      17   13569   13566      18   13578   13575
      17   13581   13575      17   13581   13578      18   13590   13587      17
   13593   13587      17   13593   13590      18   13602   13599      17   13605
   13599      17   13605   13602      18   13614   13611      17   13617   13611
      17   13617   13614      18   13626   13623      17   13629   13623      17
   13629   13626      18   13638   13635      17   13641   13635      17   13641
   13638      18   13650   13647      17   13653   13647      17   13653   13650
      18   13662   13659      17   13665   13659      17   13665   13662      18
   13674   13671      17   13677   13671      17   13677   13674      18   13686
   13683      17   13689   13683      17   13689   13686      18   13698   13695
      17   13701   13695      17   13701   13698      18   13710   13707      17
   13713   13707      17   13713   13710      18   13722   13719      17   13725
   13719      17   13725   13722      18   13734   13731      17   13737   13731
      17   13737   13734      18   13746   13743      17   13749   13743      17
   13749   13746      18   13758   13755      17   13761   13755      17   13761
   13758      18   13770   13767      17   13773   13767      17   13773   13770
      18   13782   13779      17   13785   13779      17   13785   13782      18
   13794   13791      17   13797   13791      17   13797   13794      18   13806
   13803      17   13809   13803      17   13809   13806      18   13818   13815
      17   13821   13815      17   13821   13818      18   13830   13827      17
   13833   13827      17   13833   13830      18   13842   13839      17   13845
   13839      17   13845   13842      18   13854   13851      17   13857   13851
      17   13857   13854      18   13866   13863      17   13869   13863      17
   13869   13866      18   13878   13875      17   13881   13875      17   13881
   13878      18   13890   13887      17   13893   13887      17   13893   13890
      18   13902   13899      17   13905   13899      17   13905   13902      18
   13914   13911      17   13917   13911      17   13917   13914      18   13926
   13923      17   13929   13923      17   13929   13926      18   13938   13935
      17   13941   13935      17   13941   13938      18   13950   13947      17
   13953   13947      17   13953   13950      18   13962   13959      17   13965
   13959      17   13965   13962      18   13974   13971      17   13977   13971
      17   13977   13974      18   13986   13983      17   13989   13983      17
   13989   13986      18   13998   13995      17   14001   13995      17   14001
   13998      18   14010   14007      17   14013   14007      17   14013   14010
      18   14022   14019      17   14025   14019      17   14025   14022      18
   14034   14031      17   14037   14031      17   14037   14034      18   14046
   14043      17   14049   14043      17   14049   14046      18   14058   14055
      17   14061   14055      17   14061   14058      18   14070   14067      17
   14073   14067      17   14073   14070      18   14082   14079      17   14085
   14079      17   14085   14082      18   14094   14091      17   14097   14091
      17   14097   14094      18   14106   14103      17   14109   14103      17
   14109   14106      18   14118   14115      17   14121   14115      17   14121
   14118      18   14130   14127      17   14133   14127      17   14133   14130
      18   14142   14139      17   14145   14139      17   14145   14142      18
   14154   14151      17   14157   14151      17   14157   14154      18   14166
   14163      17   14169   14163      17   14169   14166      18   14178   14175
      17   14181   14175      17   14181   14178      18   14190   14187      17
   14193   14187      17   14193   14190      18   14202   14199      17   14205
   14199      17   14205   14202      18   14214   14211      17   14217   14211
      17   14217   14214      18   14226   14223      17   14229   14223      17
   14229   14226      18   14238   14235      17   14241   14235      17   14241
   14238      18   14250   14247      17   14253   14247      17   14253   14250
      18   14262   14259      17   14265   14259      17   14265   14262      18
   14274   14271      17   14277   14271      17   14277   14274      18   14286
   14283      17   14289   14283      17   14289   14286      18   14298   14295
      17   14301   14295      17   14301   14298      18   14310   14307      17
   14313   14307      17   14313   14310      18   14322   14319      17   14325
   14319      17   14325   14322      18   14334   14331      17   14337   14331
      17   14337   14334      18   14346   14343      17   14349   14343      17
   14349   14346      18   14358   14355      17   14361   14355      17   14361
   14358      18   14370   14367      17   14373   14367      17   14373   14370
      18   14382   14379      17   14385   14379      17   14385   14382      18
   14394   14391      17   14397   14391      17   14397   14394      18   14406
   14403      17   14409   14403      17   14409   14406      18   14418   14415
      17   14421   14415      17   14421   14418      18   14430   14427      17
   14433   14427      17   14433   14430      18   14442   14439      17   14445
   14439      17   14445   14442      18   14454   14451      17   14457   14451
      17   14457   14454      18   14466   14463      17   14469   14463      17
   14469   14466      18   14478   14475      17   14481   14475      17   14481
   14478      18   14490   14487      17   14493   14487      17   14493   14490
      18   14502   14499      17   14505   14499      17   14505   14502      18
   14514   14511      17   14517   14511      17   14517   14514      18   14526
   14523      17   14529   14523      17   14529   14526      18   14538   14535
      17   14541   14535      17   14541   14538      18   14550   14547      17
   14553   14547      17   14553   14550      18   14562   14559      17   14565
   14559      17   14565   14562      18   14574   14571      17   14577   14571
      17   14577   14574      18   14586   14583      17   14589   14583      17
   14589   14586      18   14598   14595      17   14601   14595      17   14601
   14598      18   14610   14607      17   14613   14607      17   14613   14610
      18   14622   14619      17   14625   14619      17   14625   14622      18
   14634   14631      17   14637   14631      17   14637   14634      18   14646
   14643      17   14649   14643      17   14649   14646      18   14658   14655
      17   14661   14655      17   14661   14658      18   14670   14667      17
   14673   14667      17   14673   14670      18   14682   14679      17   14685
   14679      17   14685   14682      18   14694   14691      17   14697   14691
      17   14697   14694      18   14706   14703      17   14709   14703      17
   14709   14706      18
%FLAG BONDS_WITHOUT_HYDROGEN                                                    
%FORMAT(10I8)                                                                   
      30      33       1      30      36       2      12      18       5      12
      30       6       0      12       8      60      63       1      60      66
       2      42      48      10      42      60      11      36      42      13
      90      93      14      90      96      14      72      78       5      72
      90       6      66      72      16     108      99      19     120     111
      19     132     123      19     144     135      19     156     147      19
     168     159      19     180     171      19     192     183      19     204
     195      19     216     207      19     228     219      19     240     231
      19     252     243      19     264     255      19     276     267      19
     288     279      19     300     291      19     312     303      19     324
     315      19     336     327      19     348     339      19     360     351
      19     372     363      19     384     375      19     396     387      19
     408     399      19     420     411      19     432     423      19     444
     435      19     456     447      19     468     459      19     480     471
      19     492     483      19     504     495      19     516     507      19
     528     519      19     540     531      19     552     543      19     564
     555      19     576     567      19     588     579      19     600     591
      19     612     603      19     624     615      19     636     627      19
     648     639      19     660     651      19     672     663      19     684
     675      19     696     687      19     708     699      19     720     711
      19     732     723      19     744     735      19     756     747      19
     768     759      19     780     771      19     792     783      19     804
     795      19     816     807      19     828     819      19     840     831
      19     852     843      19     864     855      19     876     867      19
     888     879      19     900     891      19     912     903      19     924
     915      19     936     927      19     948     939      19     960     951
      19     972     963      19     984     975      19     996     987      19
    1008     999      19    1020    1011      19    1032    1023      19    1044
    1035      19    1056    1047      19    1068    1059      19    1080    1071
      19    1092    1083      19    1104    1095      19    1116    1107      19
    1128    1119      19    1140    1131      19    1152    1143      19    1164
    1155      19    1176    1167      19    1188    1179      19    1200    1191
      19    1212    1203      19    1224    1215      19    1236    1227      19
    1248    1239      19    1260    1251      19    1272    1263      19    1284
    1275      19    1296    1287      19    1308    1299      19    1320    1311
      19    1332    1323      19    1344    1335      19    1356    1347      19
    1368    1359      19    1380    1371      19    1392    1383      19    1404
    1395      19    1416    1407      19    1428    1419      19    1440    1431
      19    1452    1443      19    1464    1455      19    1476    1467      19
    1488    1479      19    1500    1491      19    1512    1503      19    1524
    1515      19    1536    1527      19    1548    1539      19    1560    1551
      19    1572    1563      19    1584    1575      19    1596    1587      19
    1608    1599      19    1620    1611      19    1632    1623      19    1644
    1635      19    1656    1647      19    1668    1659      19    1680    1671
      19    1692    1683      19    1704    1695      19    1716    1707      19
    1728    1719      19    1740    1731      19    1752    1743      19    1764
    1755      19    1776    1767      19    1788    1779      19    1800    1791
      19    1812    1803      19    1824    1815      19    1836    1827      19
    1848    1839      19    1860    1851      19    1872    1863      19    1884
    1875      19    1896    1887      19    1908    1899      19    1920    1911
      19    1932    1923      19    1944    1935      19    1956    1947      19
    1968    1959      19    1980    1971      19    1992    1983      19    2004
    1995      19    2016    2007      19    2028    2019      19    2040    2031
      19    2052    2043      19    2064    2055      19    2076    2067      19
    2088    2079      19    2100    2091      19    2112    2103      19    2124
    2115      19    2136    2127      19    2148    2139      19    2160    2151
      19    2172    2163      19    2184    2175      19    2196    2187      19
    2208    2199      19    2220    2211      19    2232    2223      19    2244
    2235      19    2256    2247      19    2268    2259      19    2280    2271
      19    2292    2283      19    2304    2295      19    2316    2307      19
    2328    2319      19    2340    2331      19    2352    2343      19    2364
    2355      19    2376    2367      19    2388    2379      19    2400    2391
      19    2412    2403      19    2424    2415      19    2436    2427      19
    2448    2439      19    2460    2451      19    2472    2463      19    2484
    2475      19    2496    2487      19    2508    2499      19    2520    2511
      19    2532    2523      19    2544    2535      19    2556    2547      19
    2568    2559      19    2580    2571      19    2592    2583      19    2604
    2595      19    2616    2607      19    2628    2619      19    2640    2631
      19    2652    2643      19    2664    2655      19    2676    2667      19
    2688    2679      19    2700    2691      19    2712    2703      19    2724
    2715      19    2736    2727      19    2748    2739      19    2760    2751
      19    2772    2763      19    2784    2775      19    2796    2787      19
    2808    2799      19    2820    2811      19    2832    2823      19    2844
    2835      19    2856    2847      19    2868    2859      19    2880    2871
      19    2892    2883      19    2904    2895      19    2916    2907      19
    2928    2919      19    2940    2931      19    2952    2943      19    2964
    2955      19    2976    2967      19    2988    2979      19    3000    2991
      19    3012    3003      19    3024    3015      19    3036    3027      19
    3048    3039      19    3060    3051      19    3072    3063      19    3084
    3075      19    3096    3087      19    3108    3099      19    3120    3111
      19    3132    3123      19    3144    3135      19    3156    3147      19
    3168    3159      19    3180    3171      19    3192    3183      19    3204
    3195      19    3216    3207      19    3228    3219      19    3240    3231
      19    3252    3243      19    3264    3255      19    3276    3267      19
    3288    3279      19    3300    3291      19    3312    3303      19    3324
    3315      19    3336    3327      19    3348    3339      19    3360    3351
      19    3372    3363      19    3384    3375      19    3396    3387      19
    3408    3399      19    3420    3411      19    3432    3423      19    3444
    3435      19    3456    3447      19    3468    3459      19    3480    3471
      19    3492    3483      19    3504    3495      19    3516    3507      19
    3528    3519      19    3540    3531      19    3552    3543      19    3564
    3555      19    3576    3567      19    3588    3579      19    3600    3591
      19    3612    3603      19    3624    3615      19    3636    3627      19
    3648    3639      19    3660    3651      19    3672    3663      19    3684
    3675      19    3696    3687      19    3708    3699      19    3720    3711
      19    3732    3723      19    3744    3735      19    3756    3747      19
    3768    3759      19    3780    3771      19    3792    3783      19    3804
    3795      19    3816    3807      19    3828    3819      19    3840    3831
      19    3852    3843      19    3864    3855      19    3876    3867      19
    3888    3879      19    3900    3891      19    3912    3903      19    3924
    3915      19    3936    3927      19    3948    3939      19    3960    3951
      19    3972    3963      19    3984    3975      19    3996    3987      19
    4008    3999      19    4020    4011      19    4032    4023      19    4044
    4035      19    4056    4047      19    4068    4059      19    4080    4071
      19    4092    4083      19    4104    4095      19    4116    4107      19
    4128    4119      19    4140    4131      19    4152    4143      19    4164
    4155      19    4176    4167      19    4188    4179      19    4200    4191
      19    4212    4203      19    4224    4215      19    4236    4227      19
    4248    4239      19    4260    4251      19    4272    4263      19    4284
    4275      19    4296    4287      19    4308    4299      19    4320    4311
      19    4332    4323      19    4344    4335      19    4356    4347      19
    4368    4359      19    4380    4371      19    4392    4383      19    4404
    4395      19    4416    4407      19    4428    4419      19    4440    4431
      19    4452    4443      19    4464    4455      19    4476    4467      19
    4488    4479      19    4500    4491      19    4512    4503      19    4524
    4515      19    4536    4527      19    4548    4539      19    4560    4551
      19    4572    4563      19    4584    4575      19    4596    4587      19
    4608    4599      19    4620    4611      19    4632    4623      19    4644
    4635      19    4656    4647      19    4668    4659      19    4680    4671
      19    4692    4683      19    4704    4695      19    4716    4707      19
    4728    4719      19    4740    4731      19    4752    4743      19    4764
    4755      19    4776    4767      19    4788    4779      19    4800    4791
      19    4812    4803      19    4824    4815      19    4836    4827      19
    4848    4839      19    4860    4851      19    4872    4863      19    4884
    4875      19    4896    4887      19    4908    4899      19    4920    4911
      19    4932    4923      19    4944    4935      19    4956    4947      19
    4968    4959      19    4980    4971      19    4992    4983      19    5004
    4995      19    5016    5007      19    5028    5019      19    5040    5031
      19    5052    5043      19    5064    5055      19    5076    5067      19
    5088    5079      19    5100    5091      19    5112    5103      19    5124
    5115      19    5136    5127      19    5148    5139      19    5160    5151
      19    5172    5163      19    5184    5175      19    5196    5187      19
    5208    5199      19    5220    5211      19    5232    5223      19    5244
    5235      19    5256    5247      19    5268    5259      19    5280    5271
      19    5292    5283      19    5304    5295      19    5316    5307      19
    5328    5319      19    5340    5331      19    5352    5343      19    5364
    5355      19    5376    5367      19    5388    5379      19    5400    5391
      19    5412    5403      19    5424    5415      19    5436    5427      19
    5448    5439      19    5460    5451      19    5472    5463      19    5484
    5475      19    5496    5487      19    5508    5499      19    5520    5511
      19    5532    5523      19    5544    5535      19    5556    5547      19
    5568    5559      19    5580    5571      19    5592    5583      19    5604
    5595      19    5616    5607      19    5628    5619      19    5640    5631
      19    5652    5643      19    5664    5655      19    5676    5667      19
    5688    5679      19    5700    5691      19    5712    5703      19    5724
    5715      19    5736    5727      19    5748    5739      19    5760    5751
      19    5772    5763      19    5784    5775      19    5796    5787      19
    5808    5799      19    5820    5811      19    5832    5823      19    5844
    5835      19    5856    5847      19    5868    5859      19    5880    5871
      19    5892    5883      19    5904    5895      19    5916    5907      19
    5928    5919      19    5940    5931      19    5952    5943      19    5964
    5955      19    5976    5967      19    5988    5979      19    6000    5991
      19    6012    6003      19    6024    6015      19    6036    6027      19
    6048    6039      19    6060    6051      19    6072    6063      19    6084
    6075      19    6096    6087      19    6108    6099      19    6120    6111
      19    6132    6123      19    6144    6135      19    6156    6147      19
    6168    6159      19    6180    6171      19    6192    6183      19    6204
    6195      19    6216    6207      19    6228    6219      19    6240    6231
      19    6252    6243      19    6264    6255      19    6276    6267      19
    6288    6279      19    6300    6291      19    6312    6303      19    6324
    6315      19    6336    6327      19    6348    6339      19    6360    6351
      19    6372    6363      19    6384    6375      19    6396    6387      19
    6408    6399      19    6420    6411      19    6432    6423      19    6444
    6435      19    6456    6447      19    6468    6459      19    6480    6471
      19    6492    6483      19    6504    6495      19    6516    6507      19
    6528    6519      19    6540    6531      19    6552    6543      19    6564
    6555      19    6576    6567      19    6588    6579      19    6600    6591
      19    6612    6603      19    6624    6615      19    6636    6627      19
    6648    6639      19    6660    6651      19    6672    6663      19    6684
    6675      19    6696    6687      19    6708    6699      19    6720    6711
      19    6732    6723      19    6744    6735      19    6756    6747      19
    6768    6759      19    6780    6771      19    6792    6783      19    6804
    6795      19    6816    6807      19    6828    6819      19    6840    6831
      19    6852    6843      19    6864    6855      19    6876    6867      19
    6888    6879      19    6900    6891      19    6912    6903      19    6924
    6915      19    6936    6927      19    6948    6939      19    6960    6951
      19    6972    6963      19    6984    6975      19    6996    6987      19
    7008    6999      19    7020    7011      19    7032    7023      19    7044
    7035      19    7056    7047      19    7068    7059      19    7080    7071
      19    7092    7083      19    7104    7095      19    7116    7107      19
    7128    7119      19    7140    7131      19    7152    7143      19    7164
    7155      19    7176    7167      19    7188    7179      19    7200    7191
      19    7212    7203      19    7224    7215      19    7236    7227      19
    7248    7239      19    7260    7251      19    7272    7263      19    7284
    7275      19    7296    7287      19    7308    7299      19    7320    7311
      19    7332    7323      19    7344    7335      19    7356    7347      19
    7368    7359      19    7380    7371      19    7392    7383      19    7404
    7395      19    7416    7407      19    7428    7419      19    7440    7431
      19    7452    7443      19    7464    7455      19    7476    7467      19
    7488    7479      19    7500    7491      19    7512    7503      19    7524
    7515      19    7536    7527      19    7548    7539      19    7560    7551
      19    7572    7563      19    7584    7575      19    7596    7587      19
    7608    7599      19    7620    7611      19    7632    7623      19    7644
    7635      19    7656    7647      19    7668    7659      19    7680    7671
      19    7692    7683      19    7704    7695      19    7716    7707      19
    7728    7719      19    7740    7731      19    7752    7743      19    7764
    7755      19    7776    7767      19    7788    7779      19    7800    7791
      19    7812    7803      19    7824    7815      19    7836    7827      19
    7848    7839      19    7860    7851      19    7872    7863      19    7884
    7875      19    7896    7887      19    7908    7899      19    7920    7911
      19    7932    7923      19    7944    7935      19    7956    7947      19
    7968    7959      19    7980    7971      19    7992    7983      19    8004
    7995      19    8016    8007      19    8028    8019      19    8040    8031
      19    8052    8043      19    8064    8055      19    8076    8067      19
    8088    8079      19    8100    8091      19    8112    8103      19    8124
    8115      19    8136    8127      19    8148    8139      19    8160    8151
      19    8172    8163      19    8184    8175      19    8196    8187      19
    8208    8199      19    8220    8211      19    8232    8223      19    8244
    8235      19    8256    8247      19    8268    8259      19    8280    8271
      19    8292    8283      19    8304    8295      19    8316    8307      19
    8328    8319      19    8340    8331      19    8352    8343      19    8364
    8355      19    8376    8367      19    8388    8379      19    8400    8391
      19    8412    8403      19    8424    8415      19    8436    8427      19
    8448    8439      19    8460    8451      19    8472    8463      19    8484
    8475      19    8496    8487      19    8508    8499      19    8520    8511
      19    8532    8523      19    8544    8535      19    8556    8547      19
    8568    8559      19    8580    8571      19    8592    8583      19    8604
    8595      19    8616    8607      19    8628    8619      19    8640    8631
      19    8652    8643      19    8664    8655      19    8676    8667      19
    8688    8679      19    8700    8691      19    8712    8703      19    8724
    8715      19    8736    8727      19    8748    8739      19    8760    8751
      19    8772    8763      19    8784    8775      19    8796    8787      19
    8808    8799      19    8820    8811      19    8832    8823      19    8844
    8835      19    8856    8847      19    8868    8859      19    8880    8871
      19    8892    8883      19    8904    8895      19    8916    8907      19
    8928    8919      19    8940    8931      19    8952    8943      19    8964
    8955      19    8976    8967      19    8988    8979      19    9000    8991
      19    9012    9003      19    9024    9015      19    9036    9027      19
    9048    9039      19    9060    9051      19    9072    9063      19    9084
    9075      19    9096    9087      19    9108    9099      19    9120    9111
      19    9132    9123      19    9144    9135      19    9156    9147      19
    9168    9159      19    9180    9171      19    9192    9183      19    9204
    9195      19    9216    9207      19    9228    9219      19    9240    9231
      19    9252    9243      19    9264    9255      19    9276    9267      19
    9288    9279      19    9300    9291      19    9312    9303      19    9324
    9315      19    9336    9327      19    9348    9339      19    9360    9351
      19    9372    9363      19    9384    9375      19    9396    9387      19
    9408    9399      19    9420    9411      19    9432    9423      19    9444
    9435      19    9456    9447      19    9468    9459      19    9480    9471
      19    9492    9483      19    9504    9495      19    9516    9507      19
    9528    9519      19    9540    9531      19    9552    9543      19    9564
    9555      19    9576    9567      19    9588    9579      19    9600    9591
      19    9612    9603      19    9624    9615      19    9636    9627      19
    9648    9639      19    9660    9651      19    9672    9663      19    9684
    9675      19    9696    9687      19    9708    9699      19    9720    9711
      19    9732    9723      19    9744    9735      19    9756    9747      19
    9768    9759      19    9780    9771      19    9792    9783      19    9804
    9795      19    9816    9807      19    9828    9819      19    9840    9831
      19    9852    9843      19    9864    9855      19    9876    9867      19
    9888    9879      19    9900    9891      19    9912    9903      19    9924
    9915      19    9936    9927      19    9948    9939      19    9960    9951
      19    9972    9963      19    9984    9975      19    9996    9987      19
   10008    9999      19   10020   10011      19   10032   10023      19   10044
   10035      19   10056   10047      19   10068   10059      19   10080   10071
      19   10092   10083      19   10104   10095      19   10116   10107      19
   10128   10119      19   10140   10131      19   10152   10143      19   10164
   10155      19   10176   10167      19   10188   10179      19   10200   10191
      19   10212   10203      19   10224   10215      19   10236   10227      19
   10248   10239      19   10260   10251      19   10272   10263      19   10284
   10275      19   10296   10287      19   10308   10299      19   10320   10311
      19   10332   10323      19   10344   10335      19   10356   10347      19
   10368   10359      19   10380   10371      19   10392   10383      19   10404
   10395      19   10416   10407      19   10428   10419      19   10440   10431
      19   10452   10443      19   10464   10455      19   10476   10467      19
   10488   10479      19   10500   10491      19   10512   10503      19   10524
   10515      19   10536   10527      19   10548   10539      19   10560   10551
      19   10572   10563      19   10584   10575      19   10596   10587      19
   10608   10599      19   10620   10611      19   10632   10623      19   10644
   10635      19   10656   10647      19   10668   10659      19   10680   10671
      19   10692   10683      19   10704   10695      19   10716   10707      19
   10728   10719      19   10740   10731      19   10752   10743      19   10764
   10755      19   10776   10767      19   10788   10779      19   10800   10791
      19   10812   10803      19   10824   10815      19   10836   10827      19
   10848   10839      19   10860   10851      19   10872   10863      19   10884
   10875      19   10896   10887      19   10908   10899      19   10920   10911
      19   10932   10923      19   10944   10935      19   10956   10947      19
   10968   10959      19   10980   10971      19   10992   10983      19   11004
   10995      19   11016   11007      19   11028   11019      19   11040   11031
      19   11052   11043      19   11064   11055      19   11076   11067      19
   11088   11079      19   11100   11091      19   11112   11103      19   11124
   11115      19   11136   11127      19   11148   11139      19   11160   11151
      19   11172   11163      19   11184   11175      19   11196   11187      19
   11208   11199      19   11220   11211      19   11232   11223      19   11244
   11235      19   11256   11247      19   11268   11259      19   11280   11271
      19   11292   11283      19   11304   11295      19   11316   11307      19
   11328   11319      19   11340   11331      19   11352   11343      19   11364
   11355      19   11376   11367      19   11388   11379      19   11400   11391
      19   11412   11403      19   11424   11415      19   11436   11427      19
   11448   11439      19   11460   11451      19   11472   11463      19   11484
   11475      19   11496   11487      19   11508   11499      19   11520   11511
      19   11532   11523      19   11544   11535      19   11556   11547      19
   11568   11559      19   11580   11571      19   11592   11583      19   11604
   11595      19   11616   11607      19   11628   11619      19   11640   11631
      19   11652   11643      19   11664   11655      19   11676   11667      19
   11688   11679      19   11700   11691      19   11712   11703      19   11724
   11715      19   11736   11727      19   11748   11739      19   11760   11751
      19   11772   11763      19   11784   11775      19   11796   11787      19
   11808   11799      19   11820   11811      19   11832   11823      19   11844
   11835      19   11856   11847      19   11868   11859      19   11880   11871
      19   11892   11883      19   11904   11895      19   11916   11907      19
   11928   11919      19   11940   11931      19   11952   11943      19   11964
   11955      19   11976   11967      19   11988   11979      19   12000   11991
      19   12012   12003      19   12024   12015      19   12036   12027      19
   12048   12039      19   12060   12051      19   12072   12063      19   12084
   12075      19   12096   12087      19   12108   12099      19   12120   12111
      19   12132   12123      19   12144   12135      19   12156   12147      19
   12168   12159      19   12180   12171      19   12192   12183      19   12204
   12195      19   12216   12207      19   12228   12219      19   12240   12231
      19   12252   12243      19   12264   12255      19   12276   12267      19
   12288   12279      19   12300   12291      19   12312   12303      19   12324
   12315      19   12336   12327      19   12348   12339      19   12360   12351
      19   12372   12363      19   12384   12375      19   12396   12387      19
   12408   12399      19   12420   12411      19   12432   12423      19   12444
   12435      19   12456   12447      19   12468   12459      19   12480   12471
      19   12492   12483      19   12504   12495      19   12516   12507      19
   12528   12519      19   12540   12531      19   12552   12543      19   12564
   12555      19   12576   12567      19   12588   12579      19   12600   12591
      19   12612   12603      19   12624   12615      19   12636   12627      19
   12648   12639      19   12660   12651      19   12672   12663      19   12684
   12675      19   12696   12687      19   12708   12699      19   12720   12711
      19   12732   12723      19   12744   12735      19   12756   12747      19
   12768   12759      19   12780   12771      19   12792   12783      19   12804
   12795      19   12816   12807      19   12828   12819      19   12840   12831
      19   12852   12843      19   12864   12855      19   12876   12867      19
   12888   12879      19   12900   12891      19   12912   12903      19   12924
   12915      19   12936   12927      19   12948   12939      19   12960   12951
      19   12972   12963      19   12984   12975      19   12996   12987      19
   13008   12999      19   13020   13011      19   13032   13023      19   13044
   13035      19   13056   13047      19   13068   13059      19   13080   13071
      19   13092   13083      19   13104   13095      19   13116   13107      19
   13128   13119      19   13140   13131      19   13152   13143      19   13164
   13155      19   13176   13167      19   13188   13179      19   13200   13191
      19   13212   13203      19   13224   13215      19   13236   13227      19
   13248   13239      19   13260   13251      19   13272   13263      19   13284
   13275      19   13296   13287      19   13308   13299      19   13320   13311
      19   13332   13323      19   13344   13335      19   13356   13347      19
   13368   13359      19   13380   13371      19   13392   13383      19   13404
   13395      19   13416   13407      19   13428   13419      19   13440   13431
      19   13452   13443      19   13464   13455      19   13476   13467      19
   13488   13479      19   13500   13491      19   13512   13503      19   13524
   13515      19   13536   13527      19   13548   13539      19   13560   13551
      19   13572   13563      19   13584   13575      19   13596   13587      19
   13608   13599      19   13620   13611      19   13632   13623      19   13644
   13635      19   13656   13647      19   13668   13659      19   13680   13671
      19   13692   13683      19   13704   13695      19   13716   13707      19
   13728   13719      19   13740   13731      19   13752   13743      19   13764
   13755      19   13776   13767      19   13788   13779      19   13800   13791
      19   13812   13803      19   13824   13815      19   13836   13827      19
   13848   13839      19   13860   13851      19   13872   13863      19   13884
   13875      19   13896   13887      19   13908   13899      19   13920   13911
      19   13932   13923      19   13944   13935      19   13956   13947      19
   13968   13959      19   13980   13971      19   13992   13983      19   14004
   13995      19   14016   14007      19   14028   14019      19   14040   14031
      19   14052   14043      19   14064   14055      19   14076   14067      19
   14088   14079      19   14100   14091      19   14112   14103      19   14124
   14115      19   14136   14127      19   14148   14139      19   14160   14151
      19   14172   14163      19   14184   14175      19   14196   14187      19
   14208   14199      19   14220   14211      19   14232   14223      19   14244
   14235      19   14256   14247      19   14268   14259      19   14280   14271
      19   14292   14283      19   14304   14295      19   14316   14307      19
   14328   14319      19   14340   14331      19   14352   14343      19   14364
   14355      19   14376   14367      19   14388   14379      19   14400   14391
      19   14412   14403      19   14424   14415      19   14436   14427      19
   14448   14439      19   14460   14451      19   14472   14463      19   14484
   14475      19   14496   14487      19   14508   14499      19   14520   14511
      19   14532   14523      19   14544   14535      19   14556   14547      19
   14568   14559      19   14580   14571      19   14592   14583      19   14604
   14595      19   14616   14607      19   14628   14619      19   14640   14631
      19   14652   14643      19   14664   14655      19   14676   14667      19
   14688   14679      19   14700   14691      19   14712   14703      19
%FLAG ANGLES_INC_HYDROGEN                                                       
%FORMAT(10I8)                                                                   
      30      36      39       2      24      18      27       4      21      18
      24       4      21      18      27       4      15      12      18       6
      15      12      30       7      12      18      21       8      12      18
      24       8      12      18      27       8       9       0      12      11
       6       0       9      12       6       0      12      11       3       0
       6      12       3       0       9      12       3       0      12      11
       0      12      15      13      60      66      69       2      54      48
      57       4      51      48      54       4      51      48      57       4
      45      42      48      18      45      42      60      19      42      48
      51      20      42      48      54      20      42      48      57      20
      39      36      42      23      36      42      45      24      84      78
      87       4      81      78      84       4      81      78      87       4
      75      72      78      28      75      72      90      29      72      78
      81       8      72      78      84       8      72      78      87       8
      69      66      72      31      66      72      75      32
%FLAG ANGLES_WITHOUT_HYDROGEN                                                   
%FORMAT(10I8)                                                                   
      33      30      36       1      30      36      42       3      18      12
      30       5      12      30      33       9      12      30      36      10
       0      12      18      14       0      12      30      15      63      60
      66       1      60      66      72      16      48      42      60      17
      42      60      63      21      42      60      66      22      36      42
      48      25      36      42      60      26      93      90      96      27
      78      72      90       5      72      90      93      30      72      90
      96      30      66      72      78      33      66      72      90      34
%FLAG DIHEDRALS_INC_HYDROGEN                                                    
%FORMAT(10I8)                                                                   
      33      30      36      39       1      33      30     -36      39       2
      30      36      42      45       3      27      18      12      30       7
      24      18      12      30       7      21      18      12      30       7
      15      12      18      21       7      15      12      18      24       7
      15      12      18      27       7      15      12      30      33       3
      15      12      30      36       3      12      30      36      39       2
       9       0      12      15       7       9       0      12      18       7
       9       0      12      30       7       6       0      12      15       7
       6       0      12      18       7       6       0      12      30       7
       3       0      12      15       7       3       0      12      18       7
       3       0      12      30       7       0      12      18      21       7
       0      12      18      24       7       0      12      18      27       7
      63      60      66      69       1      63      60     -66      69       2
      60      66      72      75       3      57      48      42      60       7
      54      48      42      60       7      51      48      42      60       7
      45      42      48      51       7      45      42      48      54       7
      45      42      48      57       7      45      42      60      63       4
      45      42     -60      63       3      45      42     -60      63      15
      45      42      60      66       3      42      60      66      69       2
      39      36      42      45       3      39      36      42      48       3
      39      36      42      60       3      36      42      48      51       7
      36      42      48      54       7      36      42      48      57       7
      87      78      72      90       7      84      78      72      90       7
      81      78      72      90       7      75      72      78      81       7
      75      72      78      84       7      75      72      78      87       7
      75      72      90      93       3      75      72      90      96       3
      69      66      72      75       3      69      66      72      78       3
      69      66      72      90       3      66      72      78      81       7
      66      72      78      84       7      66      72      78      87       7
      30      42     -36     -39      19      60      72     -66     -69      19
%FLAG DIHEDRALS_WITHOUT_HYDROGEN                                                
%FORMAT(10I8)                                                                   
      33      30      36      42       2      30      36      42      48       4
      30      36     -42      48       3      30      36     -42      48       5
      30      36     -42      48       6      30      36      42      60       4
      30      36     -42      60       3      30      36     -42      60       5
      30      36     -42      60       6      18      12      30      33       3
      18      12      30      36       8      18      12     -30      36       9
      18      12     -30      36      10      18      12     -30      36       6
      12      30      36      42       2       0      12      30      33       3
       0      12      30      36       3      63      60      66      72       2
      60      66      72      78       1      60      66     -72      78      11
      60      66     -72      78      12      60      66     -72      78       6
      60      66      72      90       4      60      66     -72      90      13
      60      66     -72      90      14      60      66     -72      90       6
      48      42      60      63       3      48      42      60      66       4
      48      42     -60      66       3      48      42     -60      66       5
      48      42     -60      66       6      42      60      66      72       2
      36      42      60      63       3      36      42      60      66      16
      36      42     -60      66      17      36      42     -60      66      15
      36      42     -60      66       6      78      72      90      93       3
      78      72      90      96       3      66      72      90      93       3
      66      72      90      96       3      12      36     -30     -33      18
      42      66     -60     -63      18      72      93     -90     -96      18
%FLAG EXCLUDED_ATOMS_LIST                                                       
%FORMAT(10I8)                                                                   
       2       3       4       5       6       7       8       9      10      11
      12      13       3       4       5       6       7      11       4       5
       6       7      11       5       6       7      11       6       7       8
       9      10      11      12      13      14      15       7       8       9
      10      11      12      13       8       9      10      11      12      13
       9      10      11      10      11      11      12      13      14      15
      16      17      21      13      14      15      14      15      16      17
      18      19      20      21      22      23      15      16      17      21
      16      17      18      19      20      21      22      23      24      25
      17      18      19      20      21      22      23      18      19      20
      21      22      23      19      20      21      20      21      21      22
      23      24      25      26      27      31      23      24      25      24
      25      26      27      28      29      30      31      32      33      25
      26      27      31      26      27      28      29      30      31      32
      33      27      28      29      30      31      32      33      28      29
      30      31      32      33      29      30      31      30      31      31
      32      33      33       0      35      36      37      36      37      37
       0      39      40      41      40      41      41       0      43      44
      45      44      45      45       0      47      48      49      48      49
      49       0      51      52      53      52      53      53       0      55
      56      57      56      57      57       0      59      60      61      60
      61      61       0      63      64      65      64      65      65       0
      67      68      69      68      69      69       0      71      72      73
      72      73      73       0      75      76      77      76      77      77
       0      79      80      81      80      81      81       0      83      84
      85      84      85      85       0      87      88      89      88      89
      89       0      91      92      93      92      93      93       0      95
      96      97      96      97      97       0      99     100     101     100
     101     101       0     103     104     105     104     105     105       0
     107     108     109     108     109     109       0     111     112     113
     112     113     113       0     115     116     117     116     117     117
       0     119     120     121     120     121     121       0     123     124
     125     124     125     125       0     127     128     129     128     129
     129       0     131     132     133     132     133     133       0     135
     136     137     136     137     137       0     139     140     141     140
     141     141       0     143     144     145     144     145     145       0
     147     148     149     148     149     149       0     151     152     153
     152     153     153       0     155     156     157     156     157     157
       0     159     160     161     160     161     161       0     163     164
     165     164     165     165       0     167     168     169     168     169
     169       0     171     172     173     172     173     173       0     175
     176     177     176     177     177       0     179     180     181     180
     181     181       0     183     184     185     184     185     185       0
     187     188     189     188     189     189       0     191     192     193
     192     193     193       0     195     196     197     196     197     197
       0     199     200     201     200     201     201       0     203     204
     205     204     205     205       0     207     208     209     208     209
     209       0     211     212     213     212     213     213       0     215
     216     217     216     217     217       0     219     220     221     220
     221     221       0     223     224     225     224     225     225       0
     227     228     229     228     229     229       0     231     232     233
     232     233     233       0     235     236     237     236     237     237
       0     239     240     241     240     241     241       0     243     244
     245     244     245     245       0     247     248     249     248     249
     249       0     251     252     253     252     253     253       0     255
     256     257     256     257     257       0     259     260     261     260
     261     261       0     263     264     265     264     265     265       0
     267     268     269     268     269     269       0     271     272     273
     272     273     273       0     275     276     277     276     277     277
       0     279     280     281     280     281     281       0     283     284
     285     284     285     285       0     287     288     289     288     289
     289       0     291     292     293     292     293     293       0     295
     296     297     296     297     297       0     299     300     301     300
     301     301       0     303     304     305     304     305     305       0
     307     308     309     308     309     309       0     311     312     313
     312     313     313       0     315     316     317     316     317     317
       0     319     320     321     320     321     321       0     323     324
     325     324     325     325       0     327     328     329     328     329
     329       0     331     332     333     332     333     333       0     335
     336     337     336     337     337       0     339     340     341     340
     341     341       0     343     344     345     344     345     345       0
     347     348     349     348     349     349       0     351     352     353
     352     353     353       0     355     356     357     356     357     357
       0     359     360     361     360     361     361       0     363     364
     365     364     365     365       0     367     368     369     368     369
     369       0     371     372     373     372     373     373       0     375
     376     377     376     377     377       0     379     380     381     380
     381     381       0     383     384     385     384     385     385       0
     387     388     389     388     389     389       0     391     392     393
     392     393     393       0     395     396     397     396     397     397
       0     399     400     401     400     401     401       0     403     404
     405     404     405     405       0     407     408     409     408     409
     409       0     411     412     413     412     413     413       0     415
     416     417     416     417     417       0     419     420     421     420
     421     421       0     423     424     425     424     425     425       0
     427     428     429     428     429     429       0     431     432     433
     432     433     433       0     435     436     437     436     437     437
       0     439     440     441     440     441     441       0     443     444
     445     444     445     445       0     447     448     449     448     449
     449       0     451     452     453     452     453     453       0     455
     456     457     456     457     457       0     459     460     461     460
     461     461       0     463     464     465     464     465     465       0
     467     468     469     468     469     469       0     471     472     473
     472     473     473       0     475     476     477     476     477     477
       0     479     480     481     480     481     481       0     483     484
     485     484     485     485       0     487     488     489     488     489
     489       0     491     492     493     492     493     493       0     495
     496     497     496     497     497       0     499     500     501     500
     501     501       0     503     504     505     504     505     505       0
     507     508     509     508     509     509       0     511     512     513
     512     513     513       0     515     516     517     516     517     517
       0     519     520     521     520     521     521       0     523     524
     525     524     525     525       0     527     528     529     528     529
     529       0     531     532     533     532     533     533       0     535
     536     537     536     537     537       0     539     540     541     540
     541     541       0     543     544     545     544     545     545       0
     547     548     549     548     549     549       0     551     552     553
     552     553     553       0     555     556     557     556     557     557
       0     559     560     561     560     561     561       0     563     564
     565     564     565     565       0     567     568     569     568     569
     569       0     571     572     573     572     573     573       0     575
     576     577     576     577     577       0     579     580     581     580
     581     581       0     583     584     585     584     585     585       0
     587     588     589     588     589     589       0     591     592     593
     592     593     593       0     595     596     597     596     597     597
       0     599     600     601     600     601     601       0     603     604
     605     604     605     605       0     607     608     609     608     609
     609       0     611     612     613     612     613     613       0     615
     616     617     616     617     617       0     619     620     621     620
     621     621       0     623     624     625     624     625     625       0
     627     628     629     628     629     629       0     631     632     633
     632     633     633       0     635     636     637     636     637     637
       0     639     640     641     640     641     641       0     643     644
     645     644     645     645       0     647     648     649     648     649
     649       0     651     652     653     652     653     653       0     655
     656     657     656     657     657       0     659     660     661     660
     661     661       0     663     664     665     664     665     665       0
     667     668     669     668     669     669       0     671     672     673
     672     673     673       0     675     676     677     676     677     677
       0     679     680     681     680     681     681       0     683     684
     685     684     685     685       0     687     688     689     688     689
     689       0     691     692     693     692     693     693       0     695
     696     697     696     697     697       0     699     700     701     700
     701     701       0     703     704     705     704     705     705       0
     707     708     709     708     709     709       0     711     712     713
     712     713     713       0     715     716     717     716     717     717
       0     719     720     721     720     721     721       0     723     724
     725     724     725     725       0     727     728     729     728     729
     729       0     731     732     733     732     733     733       0     735
     736     737     736     737     737       0     739     740     741     740
     741     741       0     743     744     745     744     745     745       0
     747     748     749     748     749     749       0     751     752     753
     752     753     753       0     755     756     757     756     757     757
       0     759     760     761     760     761     761       0     763     764
     765     764     765     765       0     767     768     769     768     769
     769       0     771     772     773     772     773     773       0     775
     776     777     776     777     777       0     779     780     781     780
     781     781       0     783     784     785     784     785     785       0
     787     788     789     788     789     789       0     791     792     793
     792     793     793       0     795     796     797     796     797     797
       0     799     800     801     800     801     801       0     803     804
     805     804     805     805       0     807     808     809     808     809
     809       0     811     812     813     812     813     813       0     815
     816     817     816     817     817       0     819     820     821     820
     821     821       0     823     824     825     824     825     825       0
     827     828     829     828     829     829       0     831     832     833
     832     833     833       0     835     836     837     836     837     837
       0     839     840     841     840     841     841       0     843     844
     845     844     845     845       0     847     848     849     848     849
     849       0     851     852     853     852     853     853       0     855
     856     857     856     857     857       0     859     860     861     860
     861     861       0     863     864     865     864     865     865       0
     867     868     869     868     869     869       0     871     872     873
     872     873     873       0     875     876     877     876     877     877
       0     879     880     881     880     881     881       0     883     884
     885     884     885     885       0     887     888     889     888     889
     889       0     891     892     893     892     893     893       0     895
     896     897     896     897     897       0     899     900     901     900
     901     901       0     903     904     905     904     905     905       0
     907     908     909     908     909     909       0     911     912     913
     912     913     913       0     915     916     917     916     917     917
       0     919     920     921     920     921     921       0     923     924
     925     924     925     925       0     927     928     929     928     929
     929       0     931     932     933     932     933     933       0     935
     936     937     936     937     937       0     939     940     941     940
     941     941       0     943     944     945     944     945     945       0
     947     948     949     948     949     949       0     951     952     953
     952     953     953       0     955     956     957     956     957     957
       0     959     960     961     960     961     961       0     963     964
     965     964     965     965       0     967     968     969     968     969
     969       0     971     972     973     972     973     973       0     975
     976     977     976     977     977       0     979     980     981     980
     981     981       0     983     984     985     984     985     985       0
     987     988     989     988     989     989       0     991     992     993
     992     993     993       0     995     996     997     996     997     997
       0     999    1000    1001    1000    1001    1001       0    1003    1004
    1005    1004    1005    1005       0    1007    1008    1009    1008    1009
    1009       0    1011    1012    1013    1012    1013    1013       0    1015
    1016    1017    1016    1017    1017       0    1019    1020    1021    1020
    1021    1021       0    1023    1024    1025    1024    1025    1025       0
    1027    1028    1029    1028    1029    1029       0    1031    1032    1033
    1032    1033    1033       0    1035    1036    1037    1036    1037    1037
       0    1039    1040    1041    1040    1041    1041       0    1043    1044
    1045    1044    1045    1045       0    1047    1048    1049    1048    1049
    1049       0    1051    1052    1053    1052    1053    1053       0    1055
    1056    1057    1056    1057    1057       0    1059    1060    1061    1060
    1061    1061       0    1063    1064    1065    1064    1065    1065       0
    1067    1068    1069    1068    1069    1069       0    1071    1072    1073
    1072    1073    1073       0    1075    1076    1077    1076    1077    1077
       0    1079    1080    1081    1080    1081    1081       0    1083    1084
    1085    1084    1085    1085       0    1087    1088    1089    1088    1089
    1089       0    1091    1092    1093    1092    1093    1093       0    1095
    1096    1097    1096    1097    1097       0    1099    1100    1101    1100
    1101    1101       0    1103    1104    1105    1104    1105    1105       0
    1107    1108    1109    1108    1109    1109       0    1111    1112    1113
    1112    1113    1113       0    1115    1116    1117    1116    1117    1117
       0    1119    1120    1121    1120    1121    1121       0    1123    1124
    1125    1124    1125    1125       0    1127    1128    1129    1128    1129
    1129       0    1131    1132    1133    1132    1133    1133       0    1135
    1136    1137    1136    1137    1137       0    1139    1140    1141    1140
    1141    1141       0    1143    1144    1145    1144    1145    1145       0
    1147    1148    1149    1148    1149    1149       0    1151    1152    1153
    1152    1153    1153       0    1155    1156    1157    1156    1157    1157
       0    1159    1160    1161    1160    1161    1161       0    1163    1164
    1165    1164    1165    1165       0    1167    1168    1169    1168    1169
    1169       0    1171    1172    1173    1172    1173    1173       0    1175
    1176    1177    1176    1177    1177       0    1179    1180    1181    1180
    1181    1181       0    1183    1184    1185    1184    1185    1185       0
    1187    1188    1189    1188    1189    1189       0    1191    1192    1193
    1192    1193    1193       0    1195    1196    1197    1196    1197    1197
       0    1199    1200    1201    1200    1201    1201       0    1203    1204
    1205    1204    1205    1205       0    1207    1208    1209    1208    1209
    1209       0    1211    1212    1213    1212    1213    1213       0    1215
    1216    1217    1216    1217    1217       0    1219    1220    1221    1220
    1221    1221       0    1223    1224    1225    1224    1225    1225       0
    1227    1228    1229    1228    1229    1229       0    1231    1232    1233
    1232    1233    1233       0    1235    1236    1237    1236    1237    1237
       0    1239    1240    1241    1240    1241    1241       0    1243    1244
    1245    1244    1245    1245       0    1247    1248    1249    1248    1249
    1249       0    1251    1252    1253    1252    1253    1253       0    1255
    1256    1257    1256    1257    1257       0    1259    1260    1261    1260
    1261    1261       0    1263    1264    1265    1264    1265    1265       0
    1267    1268    1269    1268    1269    1269       0    1271    1272    1273
    1272    1273    1273       0    1275    1276    1277    1276    1277    1277
       0    1279    1280    1281    1280    1281    1281       0    1283    1284
    1285    1284    1285    1285       0    1287    1288    1289    1288    1289
    1289       0    1291    1292    1293    1292    1293    1293       0    1295
    1296    1297    1296    1297    1297       0    1299    1300    1301    1300
    1301    1301       0    1303    1304    1305    1304    1305    1305       0
    1307    1308    1309    1308    1309    1309       0    1311    1312    1313
    1312    1313    1313       0    1315    1316    1317    1316    1317    1317
       0    1319    1320    1321    1320    1321    1321       0    1323    1324
    1325    1324    1325    1325       0    1327    1328    1329    1328    1329
    1329       0    1331    1332    1333    1332    1333    1333       0    1335
    1336    1337    1336    1337    1337       0    1339    1340    1341    1340
    1341    1341       0    1343    1344    1345    1344    1345    1345       0
    1347    1348    1349    1348    1349    1349       0    1351    1352    1353
    1352    1353    1353       0    1355    1356    1357    1356    1357    1357
       0    1359    1360    1361    1360    1361    1361       0    1363    1364
    1365    1364    1365    1365       0    1367    1368    1369    1368    1369
    1369       0    1371    1372    1373    1372    1373    1373       0    1375
    1376    1377    1376    1377    1377       0    1379    1380    1381    1380
    1381    1381       0    1383    1384    1385    1384    1385    1385       0
    1387    1388    1389    1388    1389    1389       0    1391    1392    1393
    1392    1393    1393       0    1395    1396    1397    1396    1397    1397
       0    1399    1400    1401    1400    1401    1401       0    1403    1404
    1405    1404    1405    1405       0    1407    1408    1409    1408    1409
    1409       0    1411    1412    1413    1412    1413    1413       0    1415
    1416    1417    1416    1417    1417       0    1419    1420    1421    1420
    1421    1421       0    1423    1424    1425    1424    1425    1425       0
    1427    1428    1429    1428    1429    1429       0    1431    1432    1433
    1432    1433    1433       0    1435    1436    1437    1436    1437    1437
       0    1439    1440    1441    1440    1441    1441       0    1443    1444
    1445    1444    1445    1445       0    1447    1448    1449    1448    1449
    1449       0    1451    1452    1453    1452    1453    1453       0    1455
    1456    1457    1456    1457    1457       0    1459    1460    1461    1460
    1461    1461       0    1463    1464    1465    1464    1465    1465       0
    1467    1468    1469    1468    1469    1469       0    1471    1472    1473
    1472    1473    1473       0    1475    1476    1477    1476    1477    1477
       0    1479    1480    1481    1480    1481    1481       0    1483    1484
    1485    1484    1485    1485       0    1487    1488    1489    1488    1489
    1489       0    1491    1492    1493    1492    1493    1493       0    1495
    1496    1497    1496    1497    1497       0    1499    1500    1501    1500
    1501    1501       0    1503    1504    1505    1504    1505    1505       0
    1507    1508    1509    1508    1509    1509       0    1511    1512    1513
    1512    1513    1513       0    1515    1516    1517    1516    1517    1517
       0    1519    1520    1521    1520    1521    1521       0    1523    1524
    1525    1524    1525    1525       0    1527    1528    1529    1528    1529
    1529       0    1531    1532    1533    1532    1533    1533       0    1535
    1536    1537    1536    1537    1537       0    1539    1540    1541    1540
    1541    1541       0    1543    1544    1545    1544    1545    1545       0
    1547    1548    1549    1548    1549    1549       0    1551    1552    1553
    1552    1553    1553       0    1555    1556    1557    1556    1557    1557
       0    1559    1560    1561    1560    1561    1561       0    1563    1564
    1565    1564    1565    1565       0    1567    1568    1569    1568    1569
    1569       0    1571    1572    1573    1572    1573    1573       0    1575
    1576    1577    1576    1577    1577       0    1579    1580    1581    1580
    1581    1581       0    1583    1584    1585    1584    1585    1585       0
    1587    1588    1589    1588    1589    1589       0    1591    1592    1593
    1592    1593    1593       0    1595    1596    1597    1596    1597    1597
       0    1599    1600    1601    1600    1601    1601       0    1603    1604
    1605    1604    1605    1605       0    1607    1608    1609    1608    1609
    1609       0    1611    1612    1613    1612    1613    1613       0    1615
    1616    1617    1616    1617    1617       0    1619    1620    1621    1620
    1621    1621       0    1623    1624    1625    1624    1625    1625       0
    1627    1628    1629    1628    1629    1629       0    1631    1632    1633
    1632    1633    1633       0    1635    1636    1637    1636    1637    1637
       0    1639    1640    1641    1640    1641    1641       0    1643    1644
    1645    1644    1645    1645       0    1647    1648    1649    1648    1649
    1649       0    1651    1652    1653    1652    1653    1653       0    1655
    1656    1657    1656    1657    1657       0    1659    1660    1661    1660
    1661    1661       0    1663    1664    1665    1664    1665    1665       0
    1667    1668    1669    1668    1669    1669       0    1671    1672    1673
    1672    1673    1673       0    1675    1676    1677    1676    1677    1677
       0    1679    1680    1681    1680    1681    1681       0    1683    1684
    1685    1684    1685    1685       0    1687    1688    1689    1688    1689
    1689       0    1691    1692    1693    1692    1693    1693       0    1695
    1696    1697    1696    1697    1697       0    1699    1700    1701    1700
    1701    1701       0    1703    1704    1705    1704    1705    1705       0
    1707    1708    1709    1708    1709    1709       0    1711    1712    1713
    1712    1713    1713       0    1715    1716    1717    1716    1717    1717
       0    1719    1720    1721    1720    1721    1721       0    1723    1724
    1725    1724    1725    1725       0    1727    1728    1729    1728    1729
    1729       0    1731    1732    1733    1732    1733    1733       0    1735
    1736    1737    1736    1737    1737       0    1739    1740    1741    1740
    1741    1741       0    1743    1744    1745    1744    1745    1745       0
    1747    1748    1749    1748    1749    1749       0    1751    1752    1753
    1752    1753    1753       0    1755    1756    1757    1756    1757    1757
       0    1759    1760    1761    1760    1761    1761       0    1763    1764
    1765    1764    1765    1765       0    1767    1768    1769    1768    1769
    1769       0    1771    1772    1773    1772    1773    1773       0    1775
    1776    1777    1776    1777    1777       0    1779    1780    1781    1780
    1781    1781       0    1783    1784    1785    1784    1785    1785       0
    1787    1788    1789    1788    1789    1789       0    1791    1792    1793
    1792    1793    1793       0    1795    1796    1797    1796    1797    1797
       0    1799    1800    1801    1800    1801    1801       0    1803    1804
    1805    1804    1805    1805       0    1807    1808    1809    1808    1809
    1809       0    1811    1812    1813    1812    1813    1813       0    1815
    1816    1817    1816    1817    1817       0    1819    1820    1821    1820
    1821    1821       0    1823    1824    1825    1824    1825    1825       0
    1827    1828    1829    1828    1829    1829       0    1831    1832    1833
    1832    1833    1833       0    1835    1836    1837    1836    1837    1837
       0    1839    1840    1841    1840    1841    1841       0    1843    1844
    1845    1844    1845    1845       0    1847    1848    1849    1848    1849
    1849       0    1851    1852    1853    1852    1853    1853       0    1855
    1856    1857    1856    1857    1857       0    1859    1860    1861    1860
    1861    1861       0    1863    1864    1865    1864    1865    1865       0
    1867    1868    1869    1868    1869    1869       0    1871    1872    1873
    1872    1873    1873       0    1875    1876    1877    1876    1877    1877
       0    1879    1880    1881    1880    1881    1881       0    1883    1884
    1885    1884    1885    1885       0    1887    1888    1889    1888    1889
    1889       0    1891    1892    1893    1892    1893    1893       0    1895
    1896    1897    1896    1897    1897       0    1899    1900    1901    1900
    1901    1901       0    1903    1904    1905    1904    1905    1905       0
    1907    1908    1909    1908    1909    1909       0    1911    1912    1913
    1912    1913    1913       0    1915    1916    1917    1916    1917    1917
       0    1919    1920    1921    1920    1921    1921       0    1923    1924
    1925    1924    1925    1925       0    1927    1928    1929    1928    1929
    1929       0    1931    1932    1933    1932    1933    1933       0    1935
    1936    1937    1936    1937    1937       0    1939    1940    1941    1940
    1941    1941       0    1943    1944    1945    1944    1945    1945       0
    1947    1948    1949    1948    1949    1949       0    1951    1952    1953
    1952    1953    1953       0    1955    1956    1957    1956    1957    1957
       0    1959    1960    1961    1960    1961    1961       0    1963    1964
    1965    1964    1965    1965       0    1967    1968    1969    1968    1969
    1969       0    1971    1972    1973    1972    1973    1973       0    1975
    1976    1977    1976    1977    1977       0    1979    1980    1981    1980
    1981    1981       0    1983    1984    1985    1984    1985    1985       0
    1987    1988    1989    1988    1989    1989       0    1991    1992    1993
    1992    1993    1993       0    1995    1996    1997    1996    1997    1997
       0    1999    2000    2001    2000    2001    2001       0    2003    2004
    2005    2004    2005    2005       0    2007    2008    2009    2008    2009
    2009       0    2011    2012    2013    2012    2013    2013       0    2015
    2016    2017    2016    2017    2017       0    2019    2020    2021    2020
    2021    2021       0    2023    2024    2025    2024    2025    2025       0
    2027    2028    2029    2028    2029    2029       0    2031    2032    2033
    2032    2033    2033       0    2035    2036    2037    2036    2037    2037
       0    2039    2040    2041    2040    2041    2041       0    2043    2044
    2045    2044    2045    2045       0    2047    2048    2049    2048    2049
    2049       0    2051    2052    2053    2052    2053    2053       0    2055
    2056    2057    2056    2057    2057       0    2059    2060    2061    2060
    2061    2061       0    2063    2064    2065    2064    2065    2065       0
    2067    2068    2069    2068    2069    2069       0    2071    2072    2073
    2072    2073    2073       0    2075    2076    2077    2076    2077    2077
       0    2079    2080    2081    2080    2081    2081       0    2083    2084
    2085    2084    2085    2085       0    2087    2088    2089    2088    2089
    2089       0    2091    2092    2093    2092    2093    2093       0    2095
    2096    2097    2096    2097    2097       0    2099    2100    2101    2100
    2101    2101       0    2103    2104    2105    2104    2105    2105       0
    2107    2108    2109    2108    2109    2109       0    2111    2112    2113
    2112    2113    2113       0    2115    2116    2117    2116    2117    2117
       0    2119    2120    2121    2120    2121    2121       0    2123    2124
    2125    2124    2125    2125       0    2127    2128    2129    2128    2129
    2129       0    2131    2132    2133    2132    2133    2133       0    2135
    2136    2137    2136    2137    2137       0    2139    2140    2141    2140
    2141    2141       0    2143    2144    2145    2144    2145    2145       0
    2147    2148    2149    2148    2149    2149       0    2151    2152    2153
    2152    2153    2153       0    2155    2156    2157    2156    2157    2157
       0    2159    2160    2161    2160    2161    2161       0    2163    2164
    2165    2164    2165    2165       0    2167    2168    2169    2168    2169
    2169       0    2171    2172    2173    2172    2173    2173       0    2175
    2176    2177    2176    2177    2177       0    2179    2180    2181    2180
    2181    2181       0    2183    2184    2185    2184    2185    2185       0
    2187    2188    2189    2188    2189    2189       0    2191    2192    2193
    2192    2193    2193       0    2195    2196    2197    2196    2197    2197
       0    2199    2200    2201    2200    2201    2201       0    2203    2204
    2205    2204    2205    2205       0    2207    2208    2209    2208    2209
    2209       0    2211    2212    2213    2212    2213    2213       0    2215
    2216    2217    2216    2217    2217       0    2219    2220    2221    2220
    2221    2221       0    2223    2224    2225    2224    2225    2225       0
    2227    2228    2229    2228    2229    2229       0    2231    2232    2233
    2232    2233    2233       0    2235    2236    2237    2236    2237    2237
       0    2239    2240    2241    2240    2241    2241       0    2243    2244
    2245    2244    2245    2245       0    2247    2248    2249    2248    2249
    2249       0    2251    2252    2253    2252    2253    2253       0    2255
    2256    2257    2256    2257    2257       0    2259    2260    2261    2260
    2261    2261       0    2263    2264    2265    2264    2265    2265       0
    2267    2268    2269    2268    2269    2269       0    2271    2272    2273
    2272    2273    2273       0    2275    2276    2277    2276    2277    2277
       0    2279    2280    2281    2280    2281    2281       0    2283    2284
    2285    2284    2285    2285       0    2287    2288    2289    2288    2289
    2289       0    2291    2292    2293    2292    2293    2293       0    2295
    2296    2297    2296    2297    2297       0    2299    2300    2301    2300
    2301    2301       0    2303    2304    2305    2304    2305    2305       0
    2307    2308    2309    2308    2309    2309       0    2311    2312    2313
    2312    2313    2313       0    2315    2316    2317    2316    2317    2317
       0    2319    2320    2321    2320    2321    2321       0    2323    2324
    2325    2324    2325    2325       0    2327    2328    2329    2328    2329
    2329       0    2331    2332    2333    2332    2333    2333       0    2335
    2336    2337    2336    2337    2337       0    2339    2340    2341    2340
    2341    2341       0    2343    2344    2345    2344    2345    2345       0
    2347    2348    2349    2348    2349    2349       0    2351    2352    2353
    2352    2353    2353       0    2355    2356    2357    2356    2357    2357
       0    2359    2360    2361    2360    2361    2361       0    2363    2364
    2365    2364    2365    2365       0    2367    2368    2369    2368    2369
    2369       0    2371    2372    2373    2372    2373    2373       0    2375
    2376    2377    2376    2377    2377       0    2379    2380    2381    2380
    2381    2381       0    2383    2384    2385    2384    2385    2385       0
    2387    2388    2389    2388    2389    2389       0    2391    2392    2393
    2392    2393    2393       0    2395    2396    2397    2396    2397    2397
       0    2399    2400    2401    2400    2401    2401       0    2403    2404
    2405    2404    2405    2405       0    2407    2408    2409    2408    2409
    2409       0    2411    2412    2413    2412    2413    2413       0    2415
    2416    2417    2416    2417    2417       0    2419    2420    2421    2420
    2421    2421       0    2423    2424    2425    2424    2425    2425       0
    2427    2428    2429    2428    2429    2429       0    2431    2432    2433
    2432    2433    2433       0    2435    2436    2437    2436    2437    2437
       0    2439    2440    2441    2440    2441    2441       0    2443    2444
    2445    2444    2445    2445       0    2447    2448    2449    2448    2449
    2449       0    2451    2452    2453    2452    2453    2453       0    2455
    2456    2457    2456    2457    2457       0    2459    2460    2461    2460
    2461    2461       0    2463    2464    2465    2464    2465    2465       0
    2467    2468    2469    2468    2469    2469       0    2471    2472    2473
    2472    2473    2473       0    2475    2476    2477    2476    2477    2477
       0    2479    2480    2481    2480    2481    2481       0    2483    2484
    2485    2484    2485    2485       0    2487    2488    2489    2488    2489
    2489       0    2491    2492    2493    2492    2493    2493       0    2495
    2496    2497    2496    2497    2497       0    2499    2500    2501    2500
    2501    2501       0    2503    2504    2505    2504    2505    2505       0
    2507    2508    2509    2508    2509    2509       0    2511    2512    2513
    2512    2513    2513       0    2515    2516    2517    2516    2517    2517
       0    2519    2520    2521    2520    2521    2521       0    2523    2524
    2525    2524    2525    2525       0    2527    2528    2529    2528    2529
    2529       0    2531    2532    2533    2532    2533    2533       0    2535
    2536    2537    2536    2537    2537       0    2539    2540    2541    2540
    2541    2541       0    2543    2544    2545    2544    2545    2545       0
    2547    2548    2549    2548    2549    2549       0    2551    2552    2553
    2552    2553    2553       0    2555    2556    2557    2556    2557    2557
       0    2559    2560    2561    2560    2561    2561       0    2563    2564
    2565    2564    2565    2565       0    2567    2568    2569    2568    2569
    2569       0    2571    2572    2573    2572    2573    2573       0    2575
    2576    2577    2576    2577    2577       0    2579    2580    2581    2580
    2581    2581       0    2583    2584    2585    2584    2585    2585       0
    2587    2588    2589    2588    2589    2589       0    2591    2592    2593
    2592    2593    2593       0    2595    2596    2597    2596    2597    2597
       0    2599    2600    2601    2600    2601    2601       0    2603    2604
    2605    2604    2605    2605       0    2607    2608    2609    2608    2609
    2609       0    2611    2612    2613    2612    2613    2613       0    2615
    2616    2617    2616    2617    2617       0    2619    2620    2621    2620
    2621    2621       0    2623    2624    2625    2624    2625    2625       0
    2627    2628    2629    2628    2629    2629       0    2631    2632    2633
    2632    2633    2633       0    2635    2636    2637    2636    2637    2637
       0    2639    2640    2641    2640    2641    2641       0    2643    2644
    2645    2644    2645    2645       0    2647    2648    2649    2648    2649
    2649       0    2651    2652    2653    2652    2653    2653       0    2655
    2656    2657    2656    2657    2657       0    2659    2660    2661    2660
    2661    2661       0    2663    2664    2665    2664    2665    2665       0
    2667    2668    2669    2668    2669    2669       0    2671    2672    2673
    2672    2673    2673       0    2675    2676    2677    2676    2677    2677
       0    2679    2680    2681    2680    2681    2681       0    2683    2684
    2685    2684    2685    2685       0    2687    2688    2689    2688    2689
    2689       0    2691    2692    2693    2692    2693    2693       0    2695
    2696    2697    2696    2697    2697       0    2699    2700    2701    2700
    2701    2701       0    2703    2704    2705    2704    2705    2705       0
    2707    2708    2709    2708    2709    2709       0    2711    2712    2713
    2712    2713    2713       0    2715    2716    2717    2716    2717    2717
       0    2719    2720    2721    2720    2721    2721       0    2723    2724
    2725    2724    2725    2725       0    2727    2728    2729    2728    2729
    2729       0    2731    2732    2733    2732    2733    2733       0    2735
    2736    2737    2736    2737    2737       0    2739    2740    2741    2740
    2741    2741       0    2743    2744    2745    2744    2745    2745       0
    2747    2748    2749    2748    2749    2749       0    2751    2752    2753
    2752    2753    2753       0    2755    2756    2757    2756    2757    2757
       0    2759    2760    2761    2760    2761    2761       0    2763    2764
    2765    2764    2765    2765       0    2767    2768    2769    2768    2769
    2769       0    2771    2772    2773    2772    2773    2773       0    2775
    2776    2777    2776    2777    2777       0    2779    2780    2781    2780
    2781    2781       0    2783    2784    2785    2784    2785    2785       0
    2787    2788    2789    2788    2789    2789       0    2791    2792    2793
    2792    2793    2793       0    2795    2796    2797    2796    2797    2797
       0    2799    2800    2801    2800    2801    2801       0    2803    2804
    2805    2804    2805    2805       0    2807    2808    2809    2808    2809
    2809       0    2811    2812    2813    2812    2813    2813       0    2815
    2816    2817    2816    2817    2817       0    2819    2820    2821    2820
    2821    2821       0    2823    2824    2825    2824    2825    2825       0
    2827    2828    2829    2828    2829    2829       0    2831    2832    2833
    2832    2833    2833       0    2835    2836    2837    2836    2837    2837
       0    2839    2840    2841    2840    2841    2841       0    2843    2844
    2845    2844    2845    2845       0    2847    2848    2849    2848    2849
    2849       0    2851    2852    2853    2852    2853    2853       0    2855
    2856    2857    2856    2857    2857       0    2859    2860    2861    2860
    2861    2861       0    2863    2864    2865    2864    2865    2865       0
    2867    2868    2869    2868    2869    2869       0    2871    2872    2873
    2872    2873    2873       0    2875    2876    2877    2876    2877    2877
       0    2879    2880    2881    2880    2881    2881       0    2883    2884
    2885    2884    2885    2885       0    2887    2888    2889    2888    2889
    2889       0    2891    2892    2893    2892    2893    2893       0    2895
    2896    2897    2896    2897    2897       0    2899    2900    2901    2900
    2901    2901       0    2903    2904    2905    2904    2905    2905       0
    2907    2908    2909    2908    2909    2909       0    2911    2912    2913
    2912    2913    2913       0    2915    2916    2917    2916    2917    2917
       0    2919    2920    2921    2920    2921    2921       0    2923    2924
    2925    2924    2925    2925       0    2927    2928    2929    2928    2929
    2929       0    2931    2932    2933    2932    2933    2933       0    2935
    2936    2937    2936    2937    2937       0    2939    2940    2941    2940
    2941    2941       0    2943    2944    2945    2944    2945    2945       0
    2947    2948    2949    2948    2949    2949       0    2951    2952    2953
    2952    2953    2953       0    2955    2956    2957    2956    2957    2957
       0    2959    2960    2961    2960    2961    2961       0    2963    2964
    2965    2964    2965    2965       0    2967    2968    2969    2968    2969
    2969       0    2971    2972    2973    2972    2973    2973       0    2975
    2976    2977    2976    2977    2977       0    2979    2980    2981    2980
    2981    2981       0    2983    2984    2985    2984    2985    2985       0
    2987    2988    2989    2988    2989    2989       0    2991    2992    2993
    2992    2993    2993       0    2995    2996    2997    2996    2997    2997
       0    2999    3000    3001    3000    3001    3001       0    3003    3004
    3005    3004    3005    3005       0    3007    3008    3009    3008    3009
    3009       0    3011    3012    3013    3012    3013    3013       0    3015
    3016    3017    3016    3017    3017       0    3019    3020    3021    3020
    3021    3021       0    3023    3024    3025    3024    3025    3025       0
    3027    3028    3029    3028    3029    3029       0    3031    3032    3033
    3032    3033    3033       0    3035    3036    3037    3036    3037    3037
       0    3039    3040    3041    3040    3041    3041       0    3043    3044
    3045    3044    3045    3045       0    3047    3048    3049    3048    3049
    3049       0    3051    3052    3053    3052    3053    3053       0    3055
    3056    3057    3056    3057    3057       0    3059    3060    3061    3060
    3061    3061       0    3063    3064    3065    3064    3065    3065       0
    3067    3068    3069    3068    3069    3069       0    3071    3072    3073
    3072    3073    3073       0    3075    3076    3077    3076    3077    3077
       0    3079    3080    3081    3080    3081    3081       0    3083    3084
    3085    3084    3085    3085       0    3087    3088    3089    3088    3089
    3089       0    3091    3092    3093    3092    3093    3093       0    3095
    3096    3097    3096    3097    3097       0    3099    3100    3101    3100
    3101    3101       0    3103    3104    3105    3104    3105    3105       0
    3107    3108    3109    3108    3109    3109       0    3111    3112    3113
    3112    3113    3113       0    3115    3116    3117    3116    3117    3117
       0    3119    3120    3121    3120    3121    3121       0    3123    3124
    3125    3124    3125    3125       0    3127    3128    3129    3128    3129
    3129       0    3131    3132    3133    3132    3133    3133       0    3135
    3136    3137    3136    3137    3137       0    3139    3140    3141    3140
    3141    3141       0    3143    3144    3145    3144    3145    3145       0
    3147    3148    3149    3148    3149    3149       0    3151    3152    3153
    3152    3153    3153       0    3155    3156    3157    3156    3157    3157
       0    3159    3160    3161    3160    3161    3161       0    3163    3164
    3165    3164    3165    3165       0    3167    3168    3169    3168    3169
    3169       0    3171    3172    3173    3172    3173    3173       0    3175
    3176    3177    3176    3177    3177       0    3179    3180    3181    3180
    3181    3181       0    3183    3184    3185    3184    3185    3185       0
    3187    3188    3189    3188    3189    3189       0    3191    3192    3193
    3192    3193    3193       0    3195    3196    3197    3196    3197    3197
       0    3199    3200    3201    3200    3201    3201       0    3203    3204
    3205    3204    3205    3205       0    3207    3208    3209    3208    3209
    3209       0    3211    3212    3213    3212    3213    3213       0    3215
    3216    3217    3216    3217    3217       0    3219    3220    3221    3220
    3221    3221       0    3223    3224    3225    3224    3225    3225       0
    3227    3228    3229    3228    3229    3229       0    3231    3232    3233
    3232    3233    3233       0    3235    3236    3237    3236    3237    3237
       0    3239    3240    3241    3240    3241    3241       0    3243    3244
    3245    3244    3245    3245       0    3247    3248    3249    3248    3249
    3249       0    3251    3252    3253    3252    3253    3253       0    3255
    3256    3257    3256    3257    3257       0    3259    3260    3261    3260
    3261    3261       0    3263    3264    3265    3264    3265    3265       0
    3267    3268    3269    3268    3269    3269       0    3271    3272    3273
    3272    3273    3273       0    3275    3276    3277    3276    3277    3277
       0    3279    3280    3281    3280    3281    3281       0    3283    3284
    3285    3284    3285    3285       0    3287    3288    3289    3288    3289
    3289       0    3291    3292    3293    3292    3293    3293       0    3295
    3296    3297    3296    3297    3297       0    3299    3300    3301    3300
    3301    3301       0    3303    3304    3305    3304    3305    3305       0
    3307    3308    3309    3308    3309    3309       0    3311    3312    3313
    3312    3313    3313       0    3315    3316    3317    3316    3317    3317
       0    3319    3320    3321    3320    3321    3321       0    3323    3324
    3325    3324    3325    3325       0    3327    3328    3329    3328    3329
    3329       0    3331    3332    3333    3332    3333    3333       0    3335
    3336    3337    3336    3337    3337       0    3339    3340    3341    3340
    3341    3341       0    3343    3344    3345    3344    3345    3345       0
    3347    3348    3349    3348    3349    3349       0    3351    3352    3353
    3352    3353    3353       0    3355    3356    3357    3356    3357    3357
       0    3359    3360    3361    3360    3361    3361       0    3363    3364
    3365    3364    3365    3365       0    3367    3368    3369    3368    3369
    3369       0    3371    3372    3373    3372    3373    3373       0    3375
    3376    3377    3376    3377    3377       0    3379    3380    3381    3380
    3381    3381       0    3383    3384    3385    3384    3385    3385       0
    3387    3388    3389    3388    3389    3389       0    3391    3392    3393
    3392    3393    3393       0    3395    3396    3397    3396    3397    3397
       0    3399    3400    3401    3400    3401    3401       0    3403    3404
    3405    3404    3405    3405       0    3407    3408    3409    3408    3409
    3409       0    3411    3412    3413    3412    3413    3413       0    3415
    3416    3417    3416    3417    3417       0    3419    3420    3421    3420
    3421    3421       0    3423    3424    3425    3424    3425    3425       0
    3427    3428    3429    3428    3429    3429       0    3431    3432    3433
    3432    3433    3433       0    3435    3436    3437    3436    3437    3437
       0    3439    3440    3441    3440    3441    3441       0    3443    3444
    3445    3444    3445    3445       0    3447    3448    3449    3448    3449
    3449       0    3451    3452    3453    3452    3453    3453       0    3455
    3456    3457    3456    3457    3457       0    3459    3460    3461    3460
    3461    3461       0    3463    3464    3465    3464    3465    3465       0
    3467    3468    3469    3468    3469    3469       0    3471    3472    3473
    3472    3473    3473       0    3475    3476    3477    3476    3477    3477
       0    3479    3480    3481    3480    3481    3481       0    3483    3484
    3485    3484    3485    3485       0    3487    3488    3489    3488    3489
    3489       0    3491    3492    3493    3492    3493    3493       0    3495
    3496    3497    3496    3497    3497       0    3499    3500    3501    3500
    3501    3501       0    3503    3504    3505    3504    3505    3505       0
    3507    3508    3509    3508    3509    3509       0    3511    3512    3513
    3512    3513    3513       0    3515    3516    3517    3516    3517    3517
       0    3519    3520    3521    3520    3521    3521       0    3523    3524
    3525    3524    3525    3525       0    3527    3528    3529    3528    3529
    3529       0    3531    3532    3533    3532    3533    3533       0    3535
    3536    3537    3536    3537    3537       0    3539    3540    3541    3540
    3541    3541       0    3543    3544    3545    3544    3545    3545       0
    3547    3548    3549    3548    3549    3549       0    3551    3552    3553
    3552    3553    3553       0    3555    3556    3557    3556    3557    3557
       0    3559    3560    3561    3560    3561    3561       0    3563    3564
    3565    3564    3565    3565       0    3567    3568    3569    3568    3569
    3569       0    3571    3572    3573    3572    3573    3573       0    3575
    3576    3577    3576    3577    3577       0    3579    3580    3581    3580
    3581    3581       0    3583    3584    3585    3584    3585    3585       0
    3587    3588    3589    3588    3589    3589       0    3591    3592    3593
    3592    3593    3593       0    3595    3596    3597    3596    3597    3597
       0    3599    3600    3601    3600    3601    3601       0    3603    3604
    3605    3604    3605    3605       0    3607    3608    3609    3608    3609
    3609       0    3611    3612    3613    3612    3613    3613       0    3615
    3616    3617    3616    3617    3617       0    3619    3620    3621    3620
    3621    3621       0    3623    3624    3625    3624    3625    3625       0
    3627    3628    3629    3628    3629    3629       0    3631    3632    3633
    3632    3633    3633       0    3635    3636    3637    3636    3637    3637
       0    3639    3640    3641    3640    3641    3641       0    3643    3644
    3645    3644    3645    3645       0    3647    3648    3649    3648    3649
    3649       0    3651    3652    3653    3652    3653    3653       0    3655
    3656    3657    3656    3657    3657       0    3659    3660    3661    3660
    3661    3661       0    3663    3664    3665    3664    3665    3665       0
    3667    3668    3669    3668    3669    3669       0    3671    3672    3673
    3672    3673    3673       0    3675    3676    3677    3676    3677    3677
       0    3679    3680    3681    3680    3681    3681       0    3683    3684
    3685    3684    3685    3685       0    3687    3688    3689    3688    3689
    3689       0    3691    3692    3693    3692    3693    3693       0    3695
    3696    3697    3696    3697    3697       0    3699    3700    3701    3700
    3701    3701       0    3703    3704    3705    3704    3705    3705       0
    3707    3708    3709    3708    3709    3709       0    3711    3712    3713
    3712    3713    3713       0    3715    3716    3717    3716    3717    3717
       0    3719    3720    3721    3720    3721    3721       0    3723    3724
    3725    3724    3725    3725       0    3727    3728    3729    3728    3729
    3729       0    3731    3732    3733    3732    3733    3733       0    3735
    3736    3737    3736    3737    3737       0    3739    3740    3741    3740
    3741    3741       0    3743    3744    3745    3744    3745    3745       0
    3747    3748    3749    3748    3749    3749       0    3751    3752    3753
    3752    3753    3753       0    3755    3756    3757    3756    3757    3757
       0    3759    3760    3761    3760    3761    3761       0    3763    3764
    3765    3764    3765    3765       0    3767    3768    3769    3768    3769
    3769       0    3771    3772    3773    3772    3773    3773       0    3775
    3776    3777    3776    3777    3777       0    3779    3780    3781    3780
    3781    3781       0    3783    3784    3785    3784    3785    3785       0
    3787    3788    3789    3788    3789    3789       0    3791    3792    3793
    3792    3793    3793       0    3795    3796    3797    3796    3797    3797
       0    3799    3800    3801    3800    3801    3801       0    3803    3804
    3805    3804    3805    3805       0    3807    3808    3809    3808    3809
    3809       0    3811    3812    3813    3812    3813    3813       0    3815
    3816    3817    3816    3817    3817       0    3819    3820    3821    3820
    3821    3821       0    3823    3824    3825    3824    3825    3825       0
    3827    3828    3829    3828    3829    3829       0    3831    3832    3833
    3832    3833    3833       0    3835    3836    3837    3836    3837    3837
       0    3839    3840    3841    3840    3841    3841       0    3843    3844
    3845    3844    3845    3845       0    3847    3848    3849    3848    3849
    3849       0    3851    3852    3853    3852    3853    3853       0    3855
    3856    3857    3856    3857    3857       0    3859    3860    3861    3860
    3861    3861       0    3863    3864    3865    3864    3865    3865       0
    3867    3868    3869    3868    3869    3869       0    3871    3872    3873
    3872    3873    3873       0    3875    3876    3877    3876    3877    3877
       0    3879    3880    3881    3880    3881    3881       0    3883    3884
    3885    3884    3885    3885       0    3887    3888    3889    3888    3889
    3889       0    3891    3892    3893    3892    3893    3893       0    3895
    3896    3897    3896    3897    3897       0    3899    3900    3901    3900
    3901    3901       0    3903    3904    3905    3904    3905    3905       0
    3907    3908    3909    3908    3909    3909       0    3911    3912    3913
    3912    3913    3913       0    3915    3916    3917    3916    3917    3917
       0    3919    3920    3921    3920    3921    3921       0    3923    3924
    3925    3924    3925    3925       0    3927    3928    3929    3928    3929
    3929       0    3931    3932    3933    3932    3933    3933       0    3935
    3936    3937    3936    3937    3937       0    3939    3940    3941    3940
    3941    3941       0    3943    3944    3945    3944    3945    3945       0
    3947    3948    3949    3948    3949    3949       0    3951    3952    3953
    3952    3953    3953       0    3955    3956    3957    3956    3957    3957
       0    3959    3960    3961    3960    3961    3961       0    3963    3964
    3965    3964    3965    3965       0    3967    3968    3969    3968    3969
    3969       0    3971    3972    3973    3972    3973    3973       0    3975
    3976    3977    3976    3977    3977       0    3979    3980    3981    3980
    3981    3981       0    3983    3984    3985    3984    3985    3985       0
    3987    3988    3989    3988    3989    3989       0    3991    3992    3993
    3992    3993    3993       0    3995    3996    3997    3996    3997    3997
       0    3999    4000    4001    4000    4001    4001       0    4003    4004
    4005    4004    4005    4005       0    4007    4008    4009    4008    4009
    4009       0    4011    4012    4013    4012    4013    4013       0    4015
    4016    4017    4016    4017    4017       0    4019    4020    4021    4020
    4021    4021       0    4023    4024    4025    4024    4025    4025       0
    4027    4028    4029    4028    4029    4029       0    4031    4032    4033
    4032    4033    4033       0    4035    4036    4037    4036    4037    4037
       0    4039    4040    4041    4040    4041    4041       0    4043    4044
    4045    4044    4045    4045       0    4047    4048    4049    4048    4049
    4049       0    4051    4052    4053    4052    4053    4053       0    4055
    4056    4057    4056    4057    4057       0    4059    4060    4061    4060
    4061    4061       0    4063    4064    4065    4064    4065    4065       0
    4067    4068    4069    4068    4069    4069       0    4071    4072    4073
    4072    4073    4073       0    4075    4076    4077    4076    4077    4077
       0    4079    4080    4081    4080    4081    4081       0    4083    4084
    4085    4084    4085    4085       0    4087    4088    4089    4088    4089
    4089       0    4091    4092    4093    4092    4093    4093       0    4095
    4096    4097    4096    4097    4097       0    4099    4100    4101    4100
    4101    4101       0    4103    4104    4105    4104    4105    4105       0
    4107    4108    4109    4108    4109    4109       0    4111    4112    4113
    4112    4113    4113       0    4115    4116    4117    4116    4117    4117
       0    4119    4120    4121    4120    4121    4121       0    4123    4124
    4125    4124    4125    4125       0    4127    4128    4129    4128    4129
    4129       0    4131    4132    4133    4132    4133    4133       0    4135
    4136    4137    4136    4137    4137       0    4139    4140    4141    4140
    4141    4141       0    4143    4144    4145    4144    4145    4145       0
    4147    4148    4149    4148    4149    4149       0    4151    4152    4153
    4152    4153    4153       0    4155    4156    4157    4156    4157    4157
       0    4159    4160    4161    4160    4161    4161       0    4163    4164
    4165    4164    4165    4165       0    4167    4168    4169    4168    4169
    4169       0    4171    4172    4173    4172    4173    4173       0    4175
    4176    4177    4176    4177    4177       0    4179    4180    4181    4180
    4181    4181       0    4183    4184    4185    4184    4185    4185       0
    4187    4188    4189    4188    4189    4189       0    4191    4192    4193
    4192    4193    4193       0    4195    4196    4197    4196    4197    4197
       0    4199    4200    4201    4200    4201    4201       0    4203    4204
    4205    4204    4205    4205       0    4207    4208    4209    4208    4209
    4209       0    4211    4212    4213    4212    4213    4213       0    4215
    4216    4217    4216    4217    4217       0    4219    4220    4221    4220
    4221    4221       0    4223    4224    4225    4224    4225    4225       0
    4227    4228    4229    4228    4229    4229       0    4231    4232    4233
    4232    4233    4233       0    4235    4236    4237    4236    4237    4237
       0    4239    4240    4241    4240    4241    4241       0    4243    4244
    4245    4244    4245    4245       0    4247    4248    4249    4248    4249
    4249       0    4251    4252    4253    4252    4253    4253       0    4255
    4256    4257    4256    4257    4257       0    4259    4260    4261    4260
    4261    4261       0    4263    4264    4265    4264    4265    4265       0
    4267    4268    4269    4268    4269    4269       0    4271    4272    4273
    4272    4273    4273       0    4275    4276    4277    4276    4277    4277
       0    4279    4280    4281    4280    4281    4281       0    4283    4284
    4285    4284    4285    4285       0    4287    4288    4289    4288    4289
    4289       0    4291    4292    4293    4292    4293    4293       0    4295
    4296    4297    4296    4297    4297       0    4299    4300    4301    4300
    4301    4301       0    4303    4304    4305    4304    4305    4305       0
    4307    4308    4309    4308    4309    4309       0    4311    4312    4313
    4312    4313    4313       0    4315    4316    4317    4316    4317    4317
       0    4319    4320    4321    4320    4321    4321       0    4323    4324
    4325    4324    4325    4325       0    4327    4328    4329    4328    4329
    4329       0    4331    4332    4333    4332    4333    4333       0    4335
    4336    4337    4336    4337    4337       0    4339    4340    4341    4340
    4341    4341       0    4343    4344    4345    4344    4345    4345       0
    4347    4348    4349    4348    4349    4349       0    4351    4352    4353
    4352    4353    4353       0    4355    4356    4357    4356    4357    4357
       0    4359    4360    4361    4360    4361    4361       0    4363    4364
    4365    4364    4365    4365       0    4367    4368    4369    4368    4369
    4369       0    4371    4372    4373    4372    4373    4373       0    4375
    4376    4377    4376    4377    4377       0    4379    4380    4381    4380
    4381    4381       0    4383    4384    4385    4384    4385    4385       0
    4387    4388    4389    4388    4389    4389       0    4391    4392    4393
    4392    4393    4393       0    4395    4396    4397    4396    4397    4397
       0    4399    4400    4401    4400    4401    4401       0    4403    4404
    4405    4404    4405    4405       0    4407    4408    4409    4408    4409
    4409       0    4411    4412    4413    4412    4413    4413       0    4415
    4416    4417    4416    4417    4417       0    4419    4420    4421    4420
    4421    4421       0    4423    4424    4425    4424    4425    4425       0
    4427    4428    4429    4428    4429    4429       0    4431    4432    4433
    4432    4433    4433       0    4435    4436    4437    4436    4437    4437
       0    4439    4440    4441    4440    4441    4441       0    4443    4444
    4445    4444    4445    4445       0    4447    4448    4449    4448    4449
    4449       0    4451    4452    4453    4452    4453    4453       0    4455
    4456    4457    4456    4457    4457       0    4459    4460    4461    4460
    4461    4461       0    4463    4464    4465    4464    4465    4465       0
    4467    4468    4469    4468    4469    4469       0    4471    4472    4473
    4472    4473    4473       0    4475    4476    4477    4476    4477    4477
       0    4479    4480    4481    4480    4481    4481       0    4483    4484
    4485    4484    4485    4485       0    4487    4488    4489    4488    4489
    4489       0    4491    4492    4493    4492    4493    4493       0    4495
    4496    4497    4496    4497    4497       0    4499    4500    4501    4500
    4501    4501       0    4503    4504    4505    4504    4505    4505       0
    4507    4508    4509    4508    4509    4509       0    4511    4512    4513
    4512    4513    4513       0    4515    4516    4517    4516    4517    4517
       0    4519    4520    4521    4520    4521    4521       0    4523    4524
    4525    4524    4525    4525       0    4527    4528    4529    4528    4529
    4529       0    4531    4532    4533    4532    4533    4533       0    4535
    4536    4537    4536    4537    4537       0    4539    4540    4541    4540
    4541    4541       0    4543    4544    4545    4544    4545    4545       0
    4547    4548    4549    4548    4549    4549       0    4551    4552    4553
    4552    4553    4553       0    4555    4556    4557    4556    4557    4557
       0    4559    4560    4561    4560    4561    4561       0    4563    4564
    4565    4564    4565    4565       0    4567    4568    4569    4568    4569
    4569       0    4571    4572    4573    4572    4573    4573       0    4575
    4576    4577    4576    4577    4577       0    4579    4580    4581    4580
    4581    4581       0    4583    4584    4585    4584    4585    4585       0
    4587    4588    4589    4588    4589    4589       0    4591    4592    4593
    4592    4593    4593       0    4595    4596    4597    4596    4597    4597
       0    4599    4600    4601    4600    4601    4601       0    4603    4604
    4605    4604    4605    4605       0    4607    4608    4609    4608    4609
    4609       0    4611    4612    4613    4612    4613    4613       0    4615
    4616    4617    4616    4617    4617       0    4619    4620    4621    4620
    4621    4621       0    4623    4624    4625    4624    4625    4625       0
    4627    4628    4629    4628    4629    4629       0    4631    4632    4633
    4632    4633    4633       0    4635    4636    4637    4636    4637    4637
       0    4639    4640    4641    4640    4641    4641       0    4643    4644
    4645    4644    4645    4645       0    4647    4648    4649    4648    4649
    4649       0    4651    4652    4653    4652    4653    4653       0    4655
    4656    4657    4656    4657    4657       0    4659    4660    4661    4660
    4661    4661       0    4663    4664    4665    4664    4665    4665       0
    4667    4668    4669    4668    4669    4669       0    4671    4672    4673
    4672    4673    4673       0    4675    4676    4677    4676    4677    4677
       0    4679    4680    4681    4680    4681    4681       0    4683    4684
    4685    4684    4685    4685       0    4687    4688    4689    4688    4689
    4689       0    4691    4692    4693    4692    4693    4693       0    4695
    4696    4697    4696    4697    4697       0    4699    4700    4701    4700
    4701    4701       0    4703    4704    4705    4704    4705    4705       0
    4707    4708    4709    4708    4709    4709       0    4711    4712    4713
    4712    4713    4713       0    4715    4716    4717    4716    4717    4717
       0    4719    4720    4721    4720    4721    4721       0    4723    4724
    4725    4724    4725    4725       0    4727    4728    4729    4728    4729
    4729       0    4731    4732    4733    4732    4733    4733       0    4735
    4736    4737    4736    4737    4737       0    4739    4740    4741    4740
    4741    4741       0    4743    4744    4745    4744    4745    4745       0
    4747    4748    4749    4748    4749    4749       0    4751    4752    4753
    4752    4753    4753       0    4755    4756    4757    4756    4757    4757
       0    4759    4760    4761    4760    4761    4761       0    4763    4764
    4765    4764    4765    4765       0    4767    4768    4769    4768    4769
    4769       0    4771    4772    4773    4772    4773    4773       0    4775
    4776    4777    4776    4777    4777       0    4779    4780    4781    4780
    4781    4781       0    4783    4784    4785    4784    4785    4785       0
    4787    4788    4789    4788    4789    4789       0    4791    4792    4793
    4792    4793    4793       0    4795    4796    4797    4796    4797    4797
       0    4799    4800    4801    4800    4801    4801       0    4803    4804
    4805    4804    4805    4805       0    4807    4808    4809    4808    4809
    4809       0    4811    4812    4813    4812    4813    4813       0    4815
    4816    4817    4816    4817    4817       0    4819    4820    4821    4820
    4821    4821       0    4823    4824    4825    4824    4825    4825       0
    4827    4828    4829    4828    4829    4829       0    4831    4832    4833
    4832    4833    4833       0    4835    4836    4837    4836    4837    4837
       0    4839    4840    4841    4840    4841    4841       0    4843    4844
    4845    4844    4845    4845       0    4847    4848    4849    4848    4849
    4849       0    4851    4852    4853    4852    4853    4853       0    4855
    4856    4857    4856    4857    4857       0    4859    4860    4861    4860
    4861    4861       0    4863    4864    4865    4864    4865    4865       0
    4867    4868    4869    4868    4869    4869       0    4871    4872    4873
    4872    4873    4873       0    4875    4876    4877    4876    4877    4877
       0    4879    4880    4881    4880    4881    4881       0    4883    4884
    4885    4884    4885    4885       0    4887    4888    4889    4888    4889
    4889       0    4891    4892    4893    4892    4893    4893       0    4895
    4896    4897    4896    4897    4897       0    4899    4900    4901    4900
    4901    4901       0    4903    4904    4905    4904    4905    4905       0
%FLAG HBOND_ACOEF                                                               
%FORMAT(5E16.8)                                                                 

%FLAG HBOND_BCOEF                                                               
%FORMAT(5E16.8)                                                                 

%FLAG HBCUT                                                                     
%FORMAT(5E16.8)                                                                 

%FLAG AMBER_ATOM_TYPE                                                           
%FORMAT(20a4)                                                                   
N3  H   H   H   CX  HP  CT  HC  HC  HC  C   O   N   H   XC  H1  CT  HC  HC  HC  
C   O   N   H   CX  H1  CT  HC  HC  HC  C   O2  O2  OW  HW  HW  EP  OW  HW  HW  
EP  OW  HW  HW  EP  OW  HW  HW  EP  OW  HW  HW  EP  OW  HW  HW  EP  OW  HW  HW  
EP  OW  HW  HW  EP  OW  HW  HW  EP  OW  HW  HW  EP  OW  HW  HW  EP  OW  HW  HW  
EP  OW  HW  HW  EP  OW  HW  HW  EP  OW  HW  HW  EP  OW  HW  HW  EP  OW  HW  HW  
EP  OW  HW  HW  EP  OW  HW  HW  EP  OW  HW  HW  EP  OW  HW  HW  EP  OW  HW  HW  
EP  OW  HW  HW  EP  OW  HW  HW  EP  OW  HW  HW  EP  OW  HW  HW  EP  OW  HW  HW  
EP  OW  HW  HW  EP  OW  HW  HW  EP  OW  HW  HW  EP  OW  HW  HW  EP  OW  HW  HW  
EP  OW  HW  HW  EP  OW  HW  HW  EP  OW  HW  HW  EP  OW  HW  HW  EP  OW  HW  HW  
EP  OW  HW  HW  EP  OW  HW  HW  EP  OW  HW  HW  EP  OW  HW  HW  EP  OW  HW  HW  
EP  OW  HW  HW  EP  OW  HW  HW  EP  OW  HW  HW  EP  OW  HW  HW  EP  OW  HW  HW  
EP  OW  HW  HW  EP  OW  HW  HW  EP  OW  HW  HW  EP  OW  HW  HW  EP  OW  HW  HW  
EP  OW  HW  HW  EP  OW  HW  HW  EP  OW  HW  HW  EP  OW  HW  HW  EP  OW  HW  HW  
EP  OW  HW  HW  EP  OW  HW  HW  EP  OW  HW  HW  EP  OW  HW  HW  EP  OW  HW  HW  
EP  OW  HW  HW  EP  OW  HW  HW  EP  OW  HW  HW  EP  OW  HW  HW  EP  OW  HW  HW  
EP  OW  HW  HW  EP  OW  HW  HW  EP  OW  HW  HW  EP  OW  HW  HW  EP  OW  HW  HW  
EP  OW  HW  HW  EP  OW  HW  HW  EP  OW  HW  HW  EP  OW  HW  HW  EP  OW  HW  HW  
EP  OW  HW  HW  EP  OW  HW  HW  EP  OW  HW  HW  EP  OW  HW  HW  EP  OW  HW  HW  
EP  OW  HW  HW  EP  OW  HW  HW  EP  OW  HW  HW  EP  OW  HW  HW  EP  OW  HW  HW  
EP  OW  HW  HW  EP  OW  HW  HW  EP  OW  HW  HW  EP  OW  HW  HW  EP  OW  HW  HW  
EP  OW  HW  HW  EP  OW  HW  HW  EP  OW  HW  HW  EP  OW  HW  HW  EP  OW  HW  HW  
EP  OW  HW  HW  EP  OW  HW  HW  EP  OW  HW  HW  EP  OW  HW  HW  EP  OW  HW  HW  
EP  OW  HW  HW  EP  OW  HW  HW  EP  OW  HW  HW  EP  OW  HW  HW  EP  OW  HW  HW  
EP  OW  HW  HW  EP  OW  HW  HW  EP  OW  HW  HW  EP  OW  HW  HW  EP  OW  HW  HW  
EP  OW  HW  HW  EP  OW  HW  HW  EP  OW  HW  HW  EP  OW  HW  HW  EP  OW  HW  HW  
EP  OW  HW  HW  EP  OW  HW  HW  EP  OW  HW  HW  EP  OW  HW  HW  EP  OW  HW  HW  
EP  OW  HW  HW  EP  OW  HW  HW  EP  OW  HW  HW  EP  OW  HW  HW  EP  OW  HW  HW  
EP  OW  HW  HW  EP  OW  HW  HW  EP  OW  HW  HW  EP  OW  HW  HW  EP  OW  HW  HW  
EP  OW  HW  HW  EP  OW  HW  HW  EP  OW  HW  HW  EP  OW  HW  HW  EP  OW  HW  HW  
EP  OW  HW  HW  EP  OW  HW  HW  EP  OW  HW  HW  EP  OW  HW  HW  EP  OW  HW  HW  
EP  OW  HW  HW  EP  OW  HW  HW  EP  OW  HW  HW  EP  OW  HW  HW  EP  OW  HW  HW  
EP  OW  HW  HW  EP  OW  HW  HW  EP  OW  HW  HW  EP  OW  HW  HW  EP  OW  HW  HW  
EP  OW  HW  HW  EP  OW  HW  HW  EP  OW  HW  HW  EP  OW  HW  HW  EP  OW  HW  HW  
EP  OW  HW  HW  EP  OW  HW  HW  EP  OW  HW  HW  EP  OW  HW  HW  EP  OW  HW  HW  
EP  OW  HW  HW  EP  OW  HW  HW  EP  OW  HW  HW  EP  OW  HW  HW  EP  OW  HW  HW  
EP  OW  HW  HW  EP  OW  HW  HW  EP  OW  HW  HW  EP  OW  HW  HW  EP  OW  HW  HW  
EP  OW  HW  HW  EP  OW  HW  HW  EP  OW  HW  HW  EP  OW  HW  HW  EP  OW  HW  HW  
EP  OW  HW  HW  EP  OW  HW  HW  EP  OW  HW  HW  EP  OW  HW  HW  EP  OW  HW  HW  
EP  OW  HW  HW  EP  OW  HW  HW  EP  OW  HW  HW  EP  OW  HW  HW  EP  OW  HW  HW  
EP  OW  HW  HW  EP  OW  HW  HW  EP  OW  HW  HW  EP  OW  HW  HW  EP  OW  HW  HW  
EP  OW  HW  HW  EP  OW  HW  HW  EP  OW  HW  HW  EP  OW  HW  HW  EP  OW  HW  HW  
EP  OW  HW  HW  EP  OW  HW  HW  EP  OW  HW  HW  EP  OW  HW  HW  EP  OW  HW  HW  
EP  OW  HW  HW  EP  OW  HW  HW  EP  OW  HW  HW  EP  OW  HW  HW  EP  OW  HW  HW  
EP  OW  HW  HW  EP  OW  HW  HW  EP  OW  HW  HW  EP  OW  HW  HW  EP  OW  HW  HW  
EP  OW  HW  HW  EP  OW  HW  HW  EP  OW  HW  HW  EP  OW  HW  HW  EP  OW  HW  HW  
EP  OW  HW  HW  EP  OW  HW  HW  EP  OW  HW  HW  EP  OW  HW  HW  EP  OW  HW  HW  
EP  OW  HW  HW  EP  OW  HW  HW  EP  OW  HW  HW  EP  OW  HW  HW  EP  OW  HW  HW  
EP  OW  HW  HW  EP  OW  HW  HW  EP  OW  HW  HW  EP  OW  HW  HW  EP  OW  HW  HW  
EP  OW  HW  HW  EP  OW  HW  HW  EP  OW  HW  HW  EP  OW  HW  HW  EP  OW  HW  HW  
EP  OW  HW  HW  EP  OW  HW  HW  EP  OW  HW  HW  EP  OW  HW  HW  EP  OW  HW  HW  
EP  OW  HW  HW  EP  OW  HW  HW  EP  OW  HW  HW  EP  OW  HW  HW  EP  OW  HW  HW  
EP  OW  HW  HW  EP  OW  HW  HW  EP  OW  HW  HW  EP  OW  HW  HW  EP  OW  HW  HW  
EP  OW  HW  HW  EP  OW  HW  HW  EP  OW  HW  HW  EP  OW  HW  HW  EP  OW  HW  HW  
EP  OW  HW  HW  EP  OW  HW  HW  EP  OW  HW  HW  EP  OW  HW  HW  EP  OW  HW  HW  
EP  OW  HW  HW  EP  OW  HW  HW  EP  OW  HW  HW  EP  OW  HW  HW  EP  OW  HW  HW  
EP  OW  HW  HW  EP  OW  HW  HW  EP  OW  HW  HW  EP  OW  HW  HW  EP  OW  HW  HW  
EP  OW  HW  HW  EP  OW  HW  HW  EP  OW  HW  HW  EP  OW  HW  HW  EP  OW  HW  HW  
EP  OW  HW  HW  EP  OW  HW  HW  EP  OW  HW  HW  EP  OW  HW  HW  EP  OW  HW  HW  
EP  OW  HW  HW  EP  OW  HW  HW  EP  OW  HW  HW  EP  OW  HW  HW  EP  OW  HW  HW  
EP  OW  HW  HW  EP  OW  HW  HW  EP  OW  HW  HW  EP  OW  HW  HW  EP  OW  HW  HW  
EP  OW  HW  HW  EP  OW  HW  HW  EP  OW  HW  HW  EP  OW  HW  HW  EP  OW  HW  HW  
EP  OW  HW  HW  EP  OW  HW  HW  EP  OW  HW  HW  EP  OW  HW  HW  EP  OW  HW  HW  
EP  OW  HW  HW  EP  OW  HW  HW  EP  OW  HW  HW  EP  OW  HW  HW  EP  OW  HW  HW  
EP  OW  HW  HW  EP  OW  HW  HW  EP  OW  HW  HW  EP  OW  HW  HW  EP  OW  HW  HW  
EP  OW  HW  HW  EP  OW  HW  HW  EP  OW  HW  HW  EP  OW  HW  HW  EP  OW  HW  HW  
EP  OW  HW  HW  EP  OW  HW  HW  EP  OW  HW  HW  EP  OW  HW  HW  EP  OW  HW  HW  
EP  OW  HW  HW  EP  OW  HW  HW  EP  OW  HW  HW  EP  OW  HW  HW  EP  OW  HW  HW  
EP  OW  HW  HW  EP  OW  HW  HW  EP  OW  HW  HW  EP  OW  HW  HW  EP  OW  HW  HW  
EP  OW  HW  HW  EP  OW  HW  HW  EP  OW  HW  HW  EP  OW  HW  HW  EP  OW  HW  HW  
EP  OW  HW  HW  EP  OW  HW  HW  EP  OW  HW  HW  EP  OW  HW  HW  EP  OW  HW  HW  
EP  OW  HW  HW  EP  OW  HW  HW  EP  OW  HW  HW  EP  OW  HW  HW  EP  OW  HW  HW  
EP  OW  HW  HW  EP  OW  HW  HW  EP  OW  HW  HW  EP  OW  HW  HW  EP  OW  HW  HW  
EP  OW  HW  HW  EP  OW  HW  HW  EP  OW  HW  HW  EP  OW  HW  HW  EP  OW  HW  HW  
EP  OW  HW  HW  EP  OW  HW  HW  EP  OW  HW  HW  EP  OW  HW  HW  EP  OW  HW  HW  
EP  OW  HW  HW  EP  OW  HW  HW  EP  OW  HW  HW  EP  OW  HW  HW  EP  OW  HW  HW  
EP  OW  HW  HW  EP  OW  HW  HW  EP  OW  HW  HW  EP  OW  HW  HW  EP  OW  HW  HW  
EP  OW  HW  HW  EP  OW  HW  HW  EP  OW  HW  HW  EP  OW  HW  HW  EP  OW  HW  HW  
EP  OW  HW  HW  EP  OW  HW  HW  EP  OW  HW  HW  EP  OW  HW  HW  EP  OW  HW  HW  
EP  OW  HW  HW  EP  OW  HW  HW  EP  OW  HW  HW  EP  OW  HW  HW  EP  OW  HW  HW  
EP  OW  HW  HW  EP  OW  HW  HW  EP  OW  HW  HW  EP  OW  HW  HW  EP  OW  HW  HW  
EP  OW  HW  HW  EP  OW  HW  HW  EP  OW  HW  HW  EP  OW  HW  HW  EP  OW  HW  HW  
EP  OW  HW  HW  EP  OW  HW  HW  EP  OW  HW  HW  EP  OW  HW  HW  EP  OW  HW  HW  
EP  OW  HW  HW  EP  OW  HW  HW  EP  OW  HW  HW  EP  OW  HW  HW  EP  OW  HW  HW  
EP  OW  HW  HW  EP  OW  HW  HW  EP  OW  HW  HW  EP  OW  HW  HW  EP  OW  HW  HW  
EP  OW  HW  HW  EP  OW  HW  HW  EP  OW  HW  HW  EP  OW  HW  HW  EP  OW  HW  HW  
EP  OW  HW  HW  EP  OW  HW  HW  EP  OW  HW  HW  EP  OW  HW  HW  EP  OW  HW  HW  
EP  OW  HW  HW  EP  OW  HW  HW  EP  OW  HW  HW  EP  OW  HW  HW  EP  OW  HW  HW  
EP  OW  HW  HW  EP  OW  HW  HW  EP  OW  HW  HW  EP  OW  HW  HW  EP  OW  HW  HW  
EP  OW  HW  HW  EP  OW  HW  HW  EP  OW  HW  HW  EP  OW  HW  HW  EP  OW  HW  HW  
EP  OW  HW  HW  EP  OW  HW  HW  EP  OW  HW  HW  EP  OW  HW  HW  EP  OW  HW  HW  
EP  OW  HW  HW  EP  OW  HW  HW  EP  OW  HW  HW  EP  OW  HW  HW  EP  OW  HW  HW  
EP  OW  HW  HW  EP  OW  HW  HW  EP  OW  HW  HW  EP  OW  HW  HW  EP  OW  HW  HW  
EP  OW  HW  HW  EP  OW  HW  HW  EP  OW  HW  HW  EP  OW  HW  HW  EP  OW  HW  HW  
EP  OW  HW  HW  EP  OW  HW  HW  EP  OW  HW  HW  EP  OW  HW  HW  EP  OW  HW  HW  
EP  OW  HW  HW  EP  OW  HW  HW  EP  OW  HW  HW  EP  OW  HW  HW  EP  OW  HW  HW  
EP  OW  HW  HW  EP  OW  HW  HW  EP  OW  HW  HW  EP  OW  HW  HW  EP  OW  HW  HW  
EP  OW  HW  HW  EP  OW  HW  HW  EP  OW  HW  HW  EP  OW  HW  HW  EP  OW  HW  HW  
EP  OW  HW  HW  EP  OW  HW  HW  EP  OW  HW  HW  EP  OW  HW  HW  EP  OW  HW  HW  
EP  OW  HW  HW  EP  OW  HW  HW  EP  OW  HW  HW  EP  OW  HW  HW  EP  OW  HW  HW  
EP  OW  HW  HW  EP  OW  HW  HW  EP  OW  HW  HW  EP  OW  HW  HW  EP  OW  HW  HW  
EP  OW  HW  HW  EP  OW  HW  HW  EP  OW  HW  HW  EP  OW  HW  HW  EP  OW  HW  HW  
EP  OW  HW  HW  EP  OW  HW  HW  EP  OW  HW  HW  EP  OW  HW  HW  EP  OW  HW  HW  
EP  OW  HW  HW  EP  OW  HW  HW  EP  OW  HW  HW  EP  OW  HW  HW  EP  OW  HW  HW  
EP  OW  HW  HW  EP  OW  HW  HW  EP  OW  HW  HW  EP  OW  HW  HW  EP  OW  HW  HW  
EP  OW  HW  HW  EP  OW  HW  HW  EP  OW  HW  HW  EP  OW  HW  HW  EP  OW  HW  HW  
EP  OW  HW  HW  EP  OW  HW  HW  EP  OW  HW  HW  EP  OW  HW  HW  EP  OW  HW  HW  
EP  OW  HW  HW  EP  OW  HW  HW  EP  OW  HW  HW  EP  OW  HW  HW  EP  OW  HW  HW  
EP  OW  HW  HW  EP  OW  HW  HW  EP  OW  HW  HW  EP  OW  HW  HW  EP  OW  HW  HW  
EP  OW  HW  HW  EP  OW  HW  HW  EP  OW  HW  HW  EP  OW  HW  HW  EP  OW  HW  HW  
EP  OW  HW  HW  EP  OW  HW  HW  EP  OW  HW  HW  EP  OW  HW  HW  EP  OW  HW  HW  
EP  OW  HW  HW  EP  OW  HW  HW  EP  OW  HW  HW  EP  OW  HW  HW  EP  OW  HW  HW  
EP  OW  HW  HW  EP  OW  HW  HW  EP  OW  HW  HW  EP  OW  HW  HW  EP  OW  HW  HW  
EP  OW  HW  HW  EP  OW  HW  HW  EP  OW  HW  HW  EP  OW  HW  HW  EP  OW  HW  HW  
EP  OW  HW  HW  EP  OW  HW  HW  EP  OW  HW  HW  EP  OW  HW  HW  EP  OW  HW  HW  
EP  OW  HW  HW  EP  OW  HW  HW  EP  OW  HW  HW  EP  OW  HW  HW  EP  OW  HW  HW  
EP  OW  HW  HW  EP  OW  HW  HW  EP  OW  HW  HW  EP  OW  HW  HW  EP  OW  HW  HW  
EP  OW  HW  HW  EP  OW  HW  HW  EP  OW  HW  HW  EP  OW  HW  HW  EP  OW  HW  HW  
EP  OW  HW  HW  EP  OW  HW  HW  EP  OW  HW  HW  EP  OW  HW  HW  EP  OW  HW  HW  
EP  OW  HW  HW  EP  OW  HW  HW  EP  OW  HW  HW  EP  OW  HW  HW  EP  OW  HW  HW  
EP  OW  HW  HW  EP  OW  HW  HW  EP  OW  HW  HW  EP  OW  HW  HW  EP  OW  HW  HW  
EP  OW  HW  HW  EP  OW  HW  HW  EP  OW  HW  HW  EP  OW  HW  HW  EP  OW  HW  HW  
EP  OW  HW  HW  EP  OW  HW  HW  EP  OW  HW  HW  EP  OW  HW  HW  EP  OW  HW  HW  
EP  OW  HW  HW  EP  OW  HW  HW  EP  OW  HW  HW  EP  OW  HW  HW  EP  OW  HW  HW  
EP  OW  HW  HW  EP  OW  HW  HW  EP  OW  HW  HW  EP  OW  HW  HW  EP  OW  HW  HW  
EP  OW  HW  HW  EP  OW  HW  HW  EP  OW  HW  HW  EP  OW  HW  HW  EP  OW  HW  HW  
EP  OW  HW  HW  EP  OW  HW  HW  EP  OW  HW  HW  EP  OW  HW  HW  EP  OW  HW  HW  
EP  OW  HW  HW  EP  OW  HW  HW  EP  OW  HW  HW  EP  OW  HW  HW  EP  OW  HW  HW  
EP  OW  HW  HW  EP  OW  HW  HW  EP  OW  HW  HW  EP  OW  HW  HW  EP  OW  HW  HW  
EP  OW  HW  HW  EP  OW  HW  HW  EP  OW  HW  HW  EP  OW  HW  HW  EP  OW  HW  HW  
EP  OW  HW  HW  EP  OW  HW  HW  EP  OW  HW  HW  EP  OW  HW  HW  EP  OW  HW  HW  
EP  OW  HW  HW  EP  OW  HW  HW  EP  OW  HW  HW  EP  OW  HW  HW  EP  OW  HW  HW  
EP  OW  HW  HW  EP  OW  HW  HW  EP  OW  HW  HW  EP  OW  HW  HW  EP  OW  HW  HW  
EP  OW  HW  HW  EP  OW  HW  HW  EP  OW  HW  HW  EP  OW  HW  HW  EP  OW  HW  HW  
EP  OW  HW  HW  EP  OW  HW  HW  EP  OW  HW  HW  EP  OW  HW  HW  EP  OW  HW  HW  
EP  OW  HW  HW  EP  OW  HW  HW  EP  OW  HW  HW  EP  OW  HW  HW  EP  OW  HW  HW  
EP  OW  HW  HW  EP  OW  HW  HW  EP  OW  HW  HW  EP  OW  HW  HW  EP  OW  HW  HW  
EP  OW  HW  HW  EP  OW  HW  HW  EP  OW  HW  HW  EP  OW  HW  HW  EP  OW  HW  HW  
EP  OW  HW  HW  EP  OW  HW  HW  EP  OW  HW  HW  EP  OW  HW  HW  EP  OW  HW  HW  
EP  OW  HW  HW  EP  OW  HW  HW  EP  OW  HW  HW  EP  OW  HW  HW  EP  OW  HW  HW  
EP  OW  HW  HW  EP  OW  HW  HW  EP  OW  HW  HW  EP  OW  HW  HW  EP  OW  HW  HW  
EP  OW  HW  HW  EP  OW  HW  HW  EP  OW  HW  HW  EP  OW  HW  HW  EP  OW  HW  HW  
EP  OW  HW  HW  EP  OW  HW  HW  EP  OW  HW  HW  EP  OW  HW  HW  EP  OW  HW  HW  
EP  OW  HW  HW  EP  OW  HW  HW  EP  OW  HW  HW  EP  OW  HW  HW  EP  OW  HW  HW  
EP  OW  HW  HW  EP  OW  HW  HW  EP  OW  HW  HW  EP  OW  HW  HW  EP  OW  HW  HW  
EP  OW  HW  HW  EP  OW  HW  HW  EP  OW  HW  HW  EP  OW  HW  HW  EP  OW  HW  HW  
EP  OW  HW  HW  EP  OW  HW  HW  EP  OW  HW  HW  EP  OW  HW  HW  EP  OW  HW  HW  
EP  OW  HW  HW  EP  OW  HW  HW  EP  OW  HW  HW  EP  OW  HW  HW  EP  OW  HW  HW  
EP  OW  HW  HW  EP  OW  HW  HW  EP  OW  HW  HW  EP  OW  HW  HW  EP  OW  HW  HW  
EP  OW  HW  HW  EP  OW  HW  HW  EP  OW  HW  HW  EP  OW  HW  HW  EP  OW  HW  HW  
EP  OW  HW  HW  EP  OW  HW  HW  EP  OW  HW  HW  EP  OW  HW  HW  EP  OW  HW  HW  
EP  OW  HW  HW  EP  OW  HW  HW  EP  OW  HW  HW  EP  OW  HW  HW  EP  OW  HW  HW  
EP  OW  HW  HW  EP  OW  HW  HW  EP  OW  HW  HW  EP  OW  HW  HW  EP  OW  HW  HW  
EP  OW  HW  HW  EP  OW  HW  HW  EP  OW  HW  HW  EP  OW  HW  HW  EP  OW  HW  HW  
EP  OW  HW  HW  EP  OW  HW  HW  EP  OW  HW  HW  EP  OW  HW  HW  EP  OW  HW  HW  
EP  OW  HW  HW  EP  OW  HW  HW  EP  OW  HW  HW  EP  OW  HW  HW  EP  OW  HW  HW  
EP  OW  HW  HW  EP  OW  HW  HW  EP  OW  HW  HW  EP  OW  HW  HW  EP  OW  HW  HW  
EP  OW  HW  HW  EP  OW  HW  HW  EP  OW  HW  HW  EP  OW  HW  HW  EP  OW  HW  HW  
EP  OW  HW  HW  EP  OW  HW  HW  EP  OW  HW  HW  EP  OW  HW  HW  EP  OW  HW  HW  
EP  OW  HW  HW  EP  OW  HW  HW  EP  OW  HW  HW  EP  OW  HW  HW  EP  OW  HW  HW  
EP  OW  HW  HW  EP  OW  HW  HW  EP  OW  HW  HW  EP  OW  HW  HW  EP  OW  HW  HW  
EP  OW  HW  HW  EP  OW  HW  HW  EP  OW  HW  HW  EP  OW  HW  HW  EP  OW  HW  HW  
EP  OW  HW  HW  EP  OW  HW  HW  EP  OW  HW  HW  EP  OW  HW  HW  EP  OW  HW  HW  
EP  OW  HW  HW  EP  OW  HW  HW  EP  OW  HW  HW  EP  OW  HW  HW  EP  OW  HW  HW  
EP  OW  HW  HW  EP  OW  HW  HW  EP  OW  HW  HW  EP  OW  HW  HW  EP  OW  HW  HW  
EP  OW  HW  HW  EP  OW  HW  HW  EP  OW  HW  HW  EP  OW  HW  HW  EP  OW  HW  HW  
EP  OW  HW  HW  EP  OW  HW  HW  EP  OW  HW  HW  EP  OW  HW  HW  EP  OW  HW  HW  
EP  OW  HW  HW  EP  OW  HW  HW  EP  OW  HW  HW  EP  OW  HW  HW  EP  OW  HW  HW  
EP  OW  HW  HW  EP  OW  HW  HW  EP  OW  HW  HW  EP  OW  HW  HW  EP  OW  HW  HW  
EP  OW  HW  HW  EP  OW  HW  HW  EP  OW  HW  HW  EP  OW  HW  HW  EP  OW  HW  HW  
EP  OW  HW  HW  EP  OW  HW  HW  EP  OW  HW  HW  EP  OW  HW  HW  EP  OW  HW  HW  
EP  OW  HW  HW  EP  OW  HW  HW  EP  OW  HW  HW  EP  OW  HW  HW  EP  OW  HW  HW  
EP  OW  HW  HW  EP  OW  HW  HW  EP  OW  HW  HW  EP  OW  HW  HW  EP  OW  HW  HW  
EP  OW  HW  HW  EP  OW  HW  HW  EP  OW  HW  HW  EP  OW  HW  HW  EP  OW  HW  HW  
EP  OW  HW  HW  EP  OW  HW  HW  EP  OW  HW  HW  EP  OW  HW  HW  EP  OW  HW  HW  
EP  OW  HW  HW  EP  OW  HW  HW  EP  OW  HW  HW  EP  OW  HW  HW  EP  OW  HW  HW  
EP  OW  HW  HW  EP  OW  HW  HW  EP  OW  HW  HW  EP  OW  HW  HW  EP  OW  HW  HW  
EP  OW  HW  HW  EP  OW  HW  HW  EP  OW  HW  HW  EP  OW  HW  HW  EP  OW  HW  HW  
EP  OW  HW  HW  EP  OW  HW  HW  EP  OW  HW  HW  EP  OW  HW  HW  EP  OW  HW  HW  
EP  OW  HW  HW  EP  OW  HW  HW  EP  OW  HW  HW  EP  OW  HW  HW  EP  OW  HW  HW  
EP  OW  HW  HW  EP  OW  HW  HW  EP  OW  HW  HW  EP  OW  HW  HW  EP  OW  HW  HW  
EP  OW  HW  HW  EP  OW  HW  HW  EP  OW  HW  HW  EP  OW  HW  HW  EP  OW  HW  HW  
EP  OW  HW  HW  EP  OW  HW  HW  EP  OW  HW  HW  EP  OW  HW  HW  EP  OW  HW  HW  
EP  OW  HW  HW  EP  OW  HW  HW  EP  OW  HW  HW  EP  OW  HW  HW  EP  OW  HW  HW  
EP  OW  HW  HW  EP  OW  HW  HW  EP  OW  HW  HW  EP  OW  HW  HW  EP  OW  HW  HW  
EP  OW  HW  HW  EP  OW  HW  HW  EP  OW  HW  HW  EP  OW  HW  HW  EP  OW  HW  HW  
EP  OW  HW  HW  EP  OW  HW  HW  EP  OW  HW  HW  EP  OW  HW  HW  EP  OW  HW  HW  
EP  OW  HW  HW  EP  OW  HW  HW  EP  OW  HW  HW  EP  OW  HW  HW  EP  OW  HW  HW  
EP  OW  HW  HW  EP  OW  HW  HW  EP  OW  HW  HW  EP  OW  HW  HW  EP  OW  HW  HW  
EP  OW  HW  HW  EP  OW  HW  HW  EP  OW  HW  HW  EP  OW  HW  HW  EP  OW  HW  HW  
EP  OW  HW  HW  EP  OW  HW  HW  EP  OW  HW  HW  EP  OW  HW  HW  EP  OW  HW  HW  
EP  OW  HW  HW  EP  OW  HW  HW  EP  OW  HW  HW  EP  OW  HW  HW  EP  OW  HW  HW  
EP  OW  HW  HW  EP  OW  HW  HW  EP  OW  HW  HW  EP  OW  HW  HW  EP  OW  HW  HW  
EP  OW  HW  HW  EP  OW  HW  HW  EP  OW  HW  HW  EP  OW  HW  HW  EP  OW  HW  HW  
EP  OW  HW  HW  EP  OW  HW  HW  EP  OW  HW  HW  EP  OW  HW  HW  EP  OW  HW  HW  
EP  OW  HW  HW  EP  OW  HW  HW  EP  OW  HW  HW  EP  OW  HW  HW  EP  OW  HW  HW  
EP  OW  HW  HW  EP  OW  HW  HW  EP  OW  HW  HW  EP  OW  HW  HW  EP  OW  HW  HW  
EP  OW  HW  HW  EP  OW  HW  HW  EP  OW  HW  HW  EP  OW  HW  HW  EP  OW  HW  HW  
EP  OW  HW  HW  EP  OW  HW  HW  EP  OW  HW  HW  EP  OW  HW  HW  EP  OW  HW  HW  
EP  OW  HW  HW  EP  OW  HW  HW  EP  OW  HW  HW  EP  OW  HW  HW  EP  OW  HW  HW  
EP  OW  HW  HW  EP  OW  HW  HW  EP  OW  HW  HW  EP  OW  HW  HW  EP  OW  HW  HW  
EP  OW  HW  HW  EP  OW  HW  HW  EP  OW  HW  HW  EP  OW  HW  HW  EP  OW  HW  HW  
EP  OW  HW  HW  EP  OW  HW  HW  EP  OW  HW  HW  EP  OW  HW  HW  EP  OW  HW  HW  
EP  OW  HW  HW  EP  OW  HW  HW  EP  OW  HW  HW  EP  OW  HW  HW  EP  OW  HW  HW  
EP  OW  HW  HW  EP  OW  HW  HW  EP  OW  HW  HW  EP  OW  HW  HW  EP  OW  HW  HW  
EP  OW  HW  HW  EP  OW  HW  HW  EP  OW  HW  HW  EP  OW  HW  HW  EP  OW  HW  HW  
EP  OW  HW  HW  EP  OW  HW  HW  EP  OW  HW  HW  EP  OW  HW  HW  EP  OW  HW  HW  
EP  OW  HW  HW  EP  OW  HW  HW  EP  OW  HW  HW  EP  OW  HW  HW  EP  OW  HW  HW  
EP  OW  HW  HW  EP  OW  HW  HW  EP  OW  HW  HW  EP  OW  HW  HW  EP  OW  HW  HW  
EP  OW  HW  HW  EP  OW  HW  HW  EP  OW  HW  HW  EP  OW  HW  HW  EP  OW  HW  HW  
EP  OW  HW  HW  EP  OW  HW  HW  EP  OW  HW  HW  EP  OW  HW  HW  EP  OW  HW  HW  
EP  OW  HW  HW  EP  OW  HW  HW  EP  OW  HW  HW  EP  OW  HW  HW  EP  OW  HW  HW  
EP  OW  HW  HW  EP  OW  HW  HW  EP  OW  HW  HW  EP  OW  HW  HW  EP  OW  HW  HW  
EP  OW  HW  HW  EP  OW  HW  HW  EP  OW  HW  HW  EP  OW  HW  HW  EP  OW  HW  HW  
EP  OW  HW  HW  EP  OW  HW  HW  EP  OW  HW  HW  EP  OW  HW  HW  EP  OW  HW  HW  
EP  OW  HW  HW  EP  OW  HW  HW  EP  OW  HW  HW  EP  OW  HW  HW  EP  OW  HW  HW  
EP  OW  HW  HW  EP  OW  HW  HW  EP  OW  HW  HW  EP  OW  HW  HW  EP  OW  HW  HW  
EP  OW  HW  HW  EP  OW  HW  HW  EP  OW  HW  HW  EP  OW  HW  HW  EP  OW  HW  HW  
EP  OW  HW  HW  EP  OW  HW  HW  EP  OW  HW  HW  EP  OW  HW  HW  EP  OW  HW  HW  
EP  OW  HW  HW  EP  OW  HW  HW  EP  OW  HW  HW  EP  OW  HW  HW  EP  OW  HW  HW  
EP  OW  HW  HW  EP  OW  HW  HW  EP  OW  HW  HW  EP  OW  HW  HW  EP  OW  HW  HW  
EP  OW  HW  HW  EP  OW  HW  HW  EP  OW  HW  HW  EP  OW  HW  HW  EP  OW  HW  HW  
EP  OW  HW  HW  EP  OW  HW  HW  EP  OW  HW  HW  EP  OW  HW  HW  EP  OW  HW  HW  
EP  OW  HW  HW  EP  OW  HW  HW  EP  OW  HW  HW  EP  OW  HW  HW  EP  OW  HW  HW  
EP  OW  HW  HW  EP  OW  HW  HW  EP  OW  HW  HW  EP  OW  HW  HW  EP  OW  HW  HW  
EP  OW  HW  HW  EP  OW  HW  HW  EP  OW  HW  HW  EP  OW  HW  HW  EP  OW  HW  HW  
EP  OW  HW  HW  EP  OW  HW  HW  EP  OW  HW  HW  EP  OW  HW  HW  EP  OW  HW  HW  
EP  OW  HW  HW  EP  OW  HW  HW  EP  OW  HW  HW  EP  OW  HW  HW  EP  OW  HW  HW  
EP  OW  HW  HW  EP  OW  HW  HW  EP  OW  HW  HW  EP  OW  HW  HW  EP  OW  HW  HW  
EP  OW  HW  HW  EP  OW  HW  HW  EP  OW  HW  HW  EP  OW  HW  HW  EP  OW  HW  HW  
EP  OW  HW  HW  EP  OW  HW  HW  EP  OW  HW  HW  EP  OW  HW  HW  EP  OW  HW  HW  
EP  OW  HW  HW  EP  OW  HW  HW  EP  OW  HW  HW  EP  OW  HW  HW  EP  OW  HW  HW  
EP  OW  HW  HW  EP  OW  HW  HW  EP  OW  HW  HW  EP  OW  HW  HW  EP  OW  HW  HW  
EP  OW  HW  HW  EP  OW  HW  HW  EP  OW  HW  HW  EP  OW  HW  HW  EP  OW  HW  HW  
EP  OW  HW  HW  EP  OW  HW  HW  EP  OW  HW  HW  EP  OW  HW  HW  EP  OW  HW  HW  
EP  OW  HW  HW  EP  OW  HW  HW  EP  OW  HW  HW  EP  OW  HW  HW  EP  OW  HW  HW  
EP  OW  HW  HW  EP  OW  HW  HW  EP  OW  HW  HW  EP  OW  HW  HW  EP  OW  HW  HW  
EP  OW  HW  HW  EP  OW  HW  HW  EP  OW  HW  HW  EP  OW  HW  HW  EP  OW  HW  HW  
EP  OW  HW  HW  EP  OW  HW  HW  EP  OW  HW  HW  EP  OW  HW  HW  EP  OW  HW  HW  
EP  OW  HW  HW  EP  OW  HW  HW  EP  OW  HW  HW  EP  OW  HW  HW  EP  OW  HW  HW  
EP  OW  HW  HW  EP  OW  HW  HW  EP  OW  HW  HW  EP  OW  HW  HW  EP  OW  HW  HW  
EP  OW  HW  HW  EP  OW  HW  HW  EP  OW  HW  HW  EP  OW  HW  HW  EP  OW  HW  HW  
EP  OW  HW  HW  EP  OW  HW  HW  EP  OW  HW  HW  EP  OW  HW  HW  EP  OW  HW  HW  
EP  OW  HW  HW  EP  OW  HW  HW  EP  OW  HW  HW  EP  OW  HW  HW  EP  OW  HW  HW  
EP  OW  HW  HW  EP  OW  HW  HW  EP  OW  HW  HW  EP  OW  HW  HW  EP  OW  HW  HW  
EP  OW  HW  HW  EP  OW  HW  HW  EP  OW  HW  HW  EP  OW  HW  HW  EP  OW  HW  HW  
EP  OW  HW  HW  EP  
%FLAG TREE_CHAIN_CLASSIFICATION                                                 
%FORMAT(20a4)                                                                   
BLA BLA BLA BLA BLA BLA BLA BLA BLA BLA BLA BLA M   E   M   E   3   E   E   E   
M   E   BLA BLA BLA BLA BLA BLA BLA BLA BLA BLA BLA M   S   E   E   M   S   E   
E   M   S   E   E   M   S   E   E   M   S   E   E   M   S   E   E   M   S   E   
E   M   S   E   E   M   S   E   E   M   S   E   E   M   S   E   E   M   S   E   
E   M   S   E   E   M   S   E   E   M   S   E   E   M   S   E   E   M   S   E   
E   M   S   E   E   M   S   E   E   M   S   E   E   M   S   E   E   M   S   E   
E   M   S   E   E   M   S   E   E   M   S   E   E   M   S   E   E   M   S   E   
E   M   S   E   E   M   S   E   E   M   S   E   E   M   S   E   E   M   S   E   
E   M   S   E   E   M   S   E   E   M   S   E   E   M   S   E   E   M   S   E   
E   M   S   E   E   M   S   E   E   M   S   E   E   M   S   E   E   M   S   E   
E   M   S   E   E   M   S   E   E   M   S   E   E   M   S   E   E   M   S   E   
E   M   S   E   E   M   S   E   E   M   S   E   E   M   S   E   E   M   S   E   
E   M   S   E   E   M   S   E   E   M   S   E   E   M   S   E   E   M   S   E   
E   M   S   E   E   M   S   E   E   M   S   E   E   M   S   E   E   M   S   E   
E   M   S   E   E   M   S   E   E   M   S   E   E   M   S   E   E   M   S   E   
E   M   S   E   E   M   S   E   E   M   S   E   E   M   S   E   E   M   S   E   
E   M   S   E   E   M   S   E   E   M   S   E   E   M   S   E   E   M   S   E   
E   M   S   E   E   M   S   E   E   M   S   E   E   M   S   E   E   M   S   E   
E   M   S   E   E   M   S   E   E   M   S   E   E   M   S   E   E   M   S   E   
E   M   S   E   E   M   S   E   E   M   S   E   E   M   S   E   E   M   S   E   
E   M   S   E   E   M   S   E   E   M   S   E   E   M   S   E   E   M   S   E   
E   M   S   E   E   M   S   E   E   M   S   E   E   M   S   E   E   M   S   E   
E   M   S   E   E   M   S   E   E   M   S   E   E   M   S   E   E   M   S   E   
E   M   S   E   E   M   S   E   E   M   S   E   E   M   S   E   E   M   S   E   
E   M   S   E   E   M   S   E   E   M   S   E   E   M   S   E   E   M   S   E   
E   M   S   E   E   M   S   E   E   M   S   E   E   M   S   E   E   M   S   E   
E   M   S   E   E   M   S   E   E   M   S   E   E   M   S   E   E   M   S   E   
E   M   S   E   E   M   S   E   E   M   S   E   E   M   S   E   E   M   S   E   
E   M   S   E   E   M   S   E   E   M   S   E   E   M   S   E   E   M   S   E   
E   M   S   E   E   M   S   E   E   M   S   E   E   M   S   E   E   M   S   E   
E   M   S   E   E   M   S   E   E   M   S   E   E   M   S   E   E   M   S   E   
E   M   S   E   E   M   S   E   E   M   S   E   E   M   S   E   E   M   S   E   
E   M   S   E   E   M   S   E   E   M   S   E   E   M   S   E   E   M   S   E   
E   M   S   E   E   M   S   E   E   M   S   E   E   M   S   E   E   M   S   E   
E   M   S   E   E   M   S   E   E   M   S   E   E   M   S   E   E   M   S   E   
E   M   S   E   E   M   S   E   E   M   S   E   E   M   S   E   E   M   S   E   
E   M   S   E   E   M   S   E   E   M   S   E   E   M   S   E   E   M   S   E   
E   M   S   E   E   M   S   E   E   M   S   E   E   M   S   E   E   M   S   E   
E   M   S   E   E   M   S   E   E   M   S   E   E   M   S   E   E   M   S   E   
E   M   S   E   E   M   S   E   E   M   S   E   E   M   S   E   E   M   S   E   
E   M   S   E   E   M   S   E   E   M   S   E   E   M   S   E   E   M   S   E   
E   M   S   E   E   M   S   E   E   M   S   E   E   M   S   E   E   M   S   E   
E   M   S   E   E   M   S   E   E   M   S   E   E   M   S   E   E   M   S   E   
E   M   S   E   E   M   S   E   E   M   S   E   E   M   S   E   E   M   S   E   
E   M   S   E   E   M   S   E   E   M   S   E   E   M   S   E   E   M   S   E   
E   M   S   E   E   M   S   E   E   M   S   E   E   M   S   E   E   M   S   E   
E   M   S   E   E   M   S   E   E   M   S   E   E   M   S   E   E   M   S   E   
E   M   S   E   E   M   S   E   E   M   S   E   E   M   S   E   E   M   S   E   
E   M   S   E   E   M   S   E   E   M   S   E   E   M   S   E   E   M   S   E   
E   M   S   E   E   M   S   E   E   M   S   E   E   M   S   E   E   M   S   E   
E   M   S   E   E   M   S   E   E   M   S   E   E   M   S   E   E   M   S   E   
E   M   S   E   E   M   S   E   E   M   S   E   E   M   S   E   E   M   S   E   
E   M   S   E   E   M   S   E   E   M   S   E   E   M   S   E   E   M   S   E   
E   M   S   E   E   M   S   E   E   M   S   E   E   M   S   E   E   M   S   E   
E   M   S   E   E   M   S   E   E   M   S   E   E   M   S   E   E   M   S   E   
E   M   S   E   E   M   S   E   E   M   S   E   E   M   S   E   E   M   S   E   
E   M   S   E   E   M   S   E   E   M   S   E   E   M   S   E   E   M   S   E   
E   M   S   E   E   M   S   E   E   M   S   E   E   M   S   E   E   M   S   E   
E   M   S   E   E   M   S   E   E   M   S   E   E   M   S   E   E   M   S   E   
E   M   S   E   E   M   S   E   E   M   S   E   E   M   S   E   E   M   S   E   
E   M   S   E   E   M   S   E   E   M   S   E   E   M   S   E   E   M   S   E   
E   M   S   E   E   M   S   E   E   M   S   E   E   M   S   E   E   M   S   E   
E   M   S   E   E   M   S   E   E   M   S   E   E   M   S   E   E   M   S   E   
E   M   S   E   E   M   S   E   E   M   S   E   E   M   S   E   E   M   S   E   
E   M   S   E   E   M   S   E   E   M   S   E   E   M   S   E   E   M   S   E   
E   M   S   E   E   M   S   E   E   M   S   E   E   M   S   E   E   M   S   E   
E   M   S   E   E   M   S   E   E   M   S   E   E   M   S   E   E   M   S   E   
E   M   S   E   E   M   S   E   E   M   S   E   E   M   S   E   E   M   S   E   
E   M   S   E   E   M   S   E   E   M   S   E   E   M   S   E   E   M   S   E   
E   M   S   E   E   M   S   E   E   M   S   E   E   M   S   E   E   M   S   E   
E   M   S   E   E   M   S   E   E   M   S   E   E   M   S   E   E   M   S   E   
E   M   S   E   E   M   S   E   E   M   S   E   E   M   S   E   E   M   S   E   
E   M   S   E   E   M   S   E   E   M   S   E   E   M   S   E   E   M   S   E   
E   M   S   E   E   M   S   E   E   M   S   E   E   M   S   E   E   M   S   E   
E   M   S   E   E   M   S   E   E   M   S   E   E   M   S   E   E   M   S   E   
E   M   S   E   E   M   S   E   E   M   S   E   E   M   S   E   E   M   S   E   
E   M   S   E   E   M   S   E   E   M   S   E   E   M   S   E   E   M   S   E   
E   M   S   E   E   M   S   E   E   M   S   E   E   M   S   E   E   M   S   E   
E   M   S   E   E   M   S   E   E   M   S   E   E   M   S   E   E   M   S   E   
E   M   S   E   E   M   S   E   E   M   S   E   E   M   S   E   E   M   S   E   
E   M   S   E   E   M   S   E   E   M   S   E   E   M   S   E   E   M   S   E   
E   M   S   E   E   M   S   E   E   M   S   E   E   M   S   E   E   M   S   E   
E   M   S   E   E   M   S   E   E   M   S   E   E   M   S   E   E   M   S   E   
E   M   S   E   E   M   S   E   E   M   S   E   E   M   S   E   E   M   S   E   
E   M   S   E   E   M   S   E   E   M   S   E   E   M   S   E   E   M   S   E   
E   M   S   E   E   M   S   E   E   M   S   E   E   M   S   E   E   M   S   E   
E   M   S   E   E   M   S   E   E   M   S   E   E   M   S   E   E   M   S   E   
E   M   S   E   E   M   S   E   E   M   S   E   E   M   S   E   E   M   S   E   
E   M   S   E   E   M   S   E   E   M   S   E   E   M   S   E   E   M   S   E   
E   M   S   E   E   M   S   E   E   M   S   E   E   M   S   E   E   M   S   E   
E   M   S   E   E   M   S   E   E   M   S   E   E   M   S   E   E   M   S   E   
E   M   S   E   E   M   S   E   E   M   S   E   E   M   S   E   E   M   S   E   
E   M   S   E   E   M   S   E   E   M   S   E   E   M   S   E   E   M   S   E   
E   M   S   E   E   M   S   E   E   M   S   E   E   M   S   E   E   M   S   E   
E   M   S   E   E   M   S   E   E   M   S   E   E   M   S   E   E   M   S   E   
E   M   S   E   E   M   S   E   E   M   S   E   E   M   S   E   E   M   S   E   
E   M   S   E   E   M   S   E   E   M   S   E   E   M   S   E   E   M   S   E   
E   M   S   E   E   M   S   E   E   M   S   E   E   M   S   E   E   M   S   E   
E   M   S   E   E   M   S   E   E   M   S   E   E   M   S   E   E   M   S   E   
E   M   S   E   E   M   S   E   E   M   S   E   E   M   S   E   E   M   S   E   
E   M   S   E   E   M   S   E   E   M   S   E   E   M   S   E   E   M   S   E   
E   M   S   E   E   M   S   E   E   M   S   E   E   M   S   E   E   M   S   E   
E   M   S   E   E   M   S   E   E   M   S   E   E   M   S   E   E   M   S   E   
E   M   S   E   E   M   S   E   E   M   S   E   E   M   S   E   E   M   S   E   
E   M   S   E   E   M   S   E   E   M   S   E   E   M   S   E   E   M   S   E   
E   M   S   E   E   M   S   E   E   M   S   E   E   M   S   E   E   M   S   E   
E   M   S   E   E   M   S   E   E   M   S   E   E   M   S   E   E   M   S   E   
E   M   S   E   E   M   S   E   E   M   S   E   E   M   S   E   E   M   S   E   
E   M   S   E   E   M   S   E   E   M   S   E   E   M   S   E   E   M   S   E   
E   M   S   E   E   M   S   E   E   M   S   E   E   M   S   E   E   M   S   E   
E   M   S   E   E   M   S   E   E   M   S   E   E   M   S   E   E   M   S   E   
E   M   S   E   E   M   S   E   E   M   S   E   E   M   S   E   E   M   S   E   
E   M   S   E   E   M   S   E   E   M   S   E   E   M   S   E   E   M   S   E   
E   M   S   E   E   M   S   E   E   M   S   E   E   M   S   E   E   M   S   E   
E   M   S   E   E   M   S   E   E   M   S   E   E   M   S   E   E   M   S   E   
E   M   S   E   E   M   S   E   E   M   S   E   E   M   S   E   E   M   S   E   
E   M   S   E   E   M   S   E   E   M   S   E   E   M   S   E   E   M   S   E   
E   M   S   E   E   M   S   E   E   M   S   E   E   M   S   E   E   M   S   E   
E   M   S   E   E   M   S   E   E   M   S   E   E   M   S   E   E   M   S   E   
E   M   S   E   E   M   S   E   E   M   S   E   E   M   S   E   E   M   S   E   
E   M   S   E   E   M   S   E   E   M   S   E   E   M   S   E   E   M   S   E   
E   M   S   E   E   M   S   E   E   M   S   E   E   M   S   E   E   M   S   E   
E   M   S   E   E   M   S   E   E   M   S   E   E   M   S   E   E   M   S   E   
E   M   S   E   E   M   S   E   E   M   S   E   E   M   S   E   E   M   S   E   
E   M   S   E   E   M   S   E   E   M   S   E   E   M   S   E   E   M   S   E   
E   M   S   E   E   M   S   E   E   M   S   E   E   M   S   E   E   M   S   E   
E   M   S   E   E   M   S   E   E   M   S   E   E   M   S   E   E   M   S   E   
E   M   S   E   E   M   S   E   E   M   S   E   E   M   S   E   E   M   S   E   
E   M   S   E   E   M   S   E   E   M   S   E   E   M   S   E   E   M   S   E   
E   M   S   E   E   M   S   E   E   M   S   E   E   M   S   E   E   M   S   E   
E   M   S   E   E   M   S   E   E   M   S   E   E   M   S   E   E   M   S   E   
E   M   S   E   E   M   S   E   E   M   S   E   E   M   S   E   E   M   S   E   
E   M   S   E   E   M   S   E   E   M   S   E   E   M   S   E   E   M   S   E   
E   M   S   E   E   M   S   E   E   M   S   E   E   M   S   E   E   M   S   E   
E   M   S   E   E   M   S   E   E   M   S   E   E   M   S   E   E   M   S   E   
E   M   S   E   E   M   S   E   E   M   S   E   E   M   S   E   E   M   S   E   
E   M   S   E   E   M   S   E   E   M   S   E   E   M   S   E   E   M   S   E   
E   M   S   E   E   M   S   E   E   M   S   E   E   M   S   E   E   M   S   E   
E   M   S   E   E   M   S   E   E   M   S   E   E   M   S   E   E   M   S   E   
E   M   S   E   E   M   S   E   E   M   S   E   E   M   S   E   E   M   S   E   
E   M   S   E   E   M   S   E   E   M   S   E   E   M   S   E   E   M   S   E   
E   M   S   E   E   M   S   E   E   M   S   E   E   M   S   E   E   M   S   E   
E   M   S   E   E   M   S   E   E   M   S   E   E   M   S   E   E   M   S   E   
E   M   S   E   E   M   S   E   E   M   S   E   E   M   S   E   E   M   S   E   
E   M   S   E   E   M   S   E   E   M   S   E   E   M   S   E   E   M   S   E   
E   M   S   E   E   M   S   E   E   M   S   E   E   M   S   E   E   M   S   E   
E   M   S   E   E   M   S   E   E   M   S   E   E   M   S   E   E   M   S   E   
E   M   S   E   E   M   S   E   E   M   S   E   E   M   S   E   E   M   S   E   
E   M   S   E   E   M   S   E   E   M   S   E   E   M   S   E   E   M   S   E   
E   M   S   E   E   M   S   E   E   M   S   E   E   M   S   E   E   M   S   E   
E   M   S   E   E   M   S   E   E   M   S   E   E   M   S   E   E   M   S   E   
E   M   S   E   E   M   S   E   E   M   S   E   E   M   S   E   E   M   S   E   
E   M   S   E   E   M   S   E   E   M   S   E   E   M   S   E   E   M   S   E   
E   M   S   E   E   M   S   E   E   M   S   E   E   M   S   E   E   M   S   E   
E   M   S   E   E   M   S   E   E   M   S   E   E   M   S   E   E   M   S   E   
E   M   S   E   E   M   S   E   E   M   S   E   E   M   S   E   E   M   S   E   
E   M   S   E   E   M   S   E   E   M   S   E   E   M   S   E   E   M   S   E   
E   M   S   E   E   M   S   E   E   M   S   E   E   M   S   E   E   M   S   E   
E   M   S   E   E   M   S   E   E   M   S   E   E   M   S   E   E   M   S   E   
E   M   S   E   E   M   S   E   E   M   S   E   E   M   S   E   E   M   S   E   
E   M   S   E   E   M   S   E   E   M   S   E   E   M   S   E   E   M   S   E   
E   M   S   E   E   M   S   E   E   M   S   E   E   M   S   E   E   M   S   E   
E   M   S   E   E   M   S   E   E   M   S   E   E   M   S   E   E   M   S   E   
E   M   S   E   E   M   S   E   E   M   S   E   E   M   S   E   E   M   S   E   
E   M   S   E   E   M   S   E   E   M   S   E   E   M   S   E   E   M   S   E   
E   M   S   E   E   M   S   E   E   M   S   E   E   M   S   E   E   M   S   E   
E   M   S   E   E   M   S   E   E   M   S   E   E   M   S   E   E   M   S   E   
E   M   S   E   E   M   S   E   E   M   S   E   E   M   S   E   E   M   S   E   
E   M   S   E   E   M   S   E   E   M   S   E   E   M   S   E   E   M   S   E   
E   M   S   E   E   M   S   E   E   M   S   E   E   M   S   E   E   M   S   E   
E   M   S   E   E   M   S   E   E   M   S   E   E   M   S   E   E   M   S   E   
E   M   S   E   E   M   S   E   E   M   S   E   E   M   S   E   E   M   S   E   
E   M   S   E   E   M   S   E   E   M   S   E   E   M   S   E   E   M   S   E   
E   M   S   E   E   M   S   E   E   M   S   E   E   M   S   E   E   M   S   E   
E   M   S   E   E   M   S   E   E   M   S   E   E   M   S   E   E   M   S   E   
E   M   S   E   E   M   S   E   E   M   S   E   E   M   S   E   E   M   S   E   
E   M   S   E   E   M   S   E   E   M   S   E   E   M   S   E   E   M   S   E   
E   M   S   E   E   M   S   E   E   M   S   E   E   M   S   E   E   M   S   E   
E   M   S   E   E   M   S   E   E   M   S   E   E   M   S   E   E   M   S   E   
E   M   S   E   E   M   S   E   E   M   S   E   E   M   S   E   E   M   S   E   
E   M   S   E   E   M   S   E   E   M   S   E   E   M   S   E   E   M   S   E   
E   M   S   E   E   M   S   E   E   M   S   E   E   M   S   E   E   M   S   E   
E   M   S   E   E   M   S   E   E   M   S   E   E   M   S   E   E   M   S   E   
E   M   S   E   E   M   S   E   E   M   S   E   E   M   S   E   E   M   S   E   
E   M   S   E   E   M   S   E   E   M   S   E   E   M   S   E   E   M   S   E   
E   M   S   E   E   M   S   E   E   M   S   E   E   M   S   E   E   M   S   E   
E   M   S   E   E   M   S   E   E   M   S   E   E   M   S   E   E   M   S   E   
E   M   S   E   E   M   S   E   E   M   S   E   E   M   S   E   E   M   S   E   
E   M   S   E   E   M   S   E   E   M   S   E   E   M   S   E   E   M   S   E   
E   M   S   E   E   M   S   E   E   M   S   E   E   M   S   E   E   M   S   E   
E   M   S   E   E   M   S   E   E   M   S   E   E   M   S   E   E   M   S   E   
E   M   S   E   E   M   S   E   E   M   S   E   E   M   S   E   E   M   S   E   
E   M   S   E   E   M   S   E   E   M   S   E   E   M   S   E   E   M   S   E   
E   M   S   E   E   M   S   E   E   M   S   E   E   M   S   E   E   M   S   E   
E   M   S   E   E   M   S   E   E   M   S   E   E   M   S   E   E   M   S   E   
E   M   S   E   E   M   S   E   E   M   S   E   E   M   S   E   E   M   S   E   
E   M   S   E   E   M   S   E   E   M   S   E   E   M   S   E   E   M   S   E   
E   M   S   E   E   M   S   E   E   M   S   E   E   M   S   E   E   M   S   E   
E   M   S   E   E   M   S   E   E   M   S   E   E   M   S   E   E   M   S   E   
E   M   S   E   E   M   S   E   E   M   S   E   E   M   S   E   E   M   S   E   
E   M   S   E   E   M   S   E   E   M   S   E   E   M   S   E   E   M   S   E   
E   M   S   E   E   M   S   E   E   M   S   E   E   M   S   E   E   M   S   E   
E   M   S   E   E   M   S   E   E   M   S   E   E   M   S   E   E   M   S   E   
E   M   S   E   E   M   S   E   E   M   S   E   E   M   S   E   E   M   S   E   
E   M   S   E   E   M   S   E   E   M   S   E   E   M   S   E   E   M   S   E   
E   M   S   E   E   M   S   E   E   M   S   E   E   M   S   E   E   M   S   E   
E   M   S   E   E   M   S   E   E   M   S   E   E   M   S   E   E   M   S   E   
E   M   S   E   E   M   S   E   E   M   S   E   E   M   S   E   E   M   S   E   
E   M   S   E   E   M   S   E   E   M   S   E   E   M   S   E   E   M   S   E   
E   M   S   E   E   M   S   E   E   M   S   E   E   M   S   E   E   M   S   E   
E   M   S   E   E   M   S   E   E   M   S   E   E   M   S   E   E   M   S   E   
E   M   S   E   E   M   S   E   E   M   S   E   E   M   S   E   E   M   S   E   
E   M   S   E   E   M   S   E   E   M   S   E   E   M   S   E   E   M   S   E   
E   M   S   E   E   M   S   E   E   M   S   E   E   M   S   E   E   M   S   E   
E   M   S   E   E   M   S   E   E   M   S   E   E   M   S   E   E   M   S   E   
E   M   S   E   E   M   S   E   E   M   S   E   E   M   S   E   E   M   S   E   
E   M   S   E   E   M   S   E   E   M   S   E   E   M   S   E   E   M   S   E   
E   M   S   E   E   M   S   E   E   M   S   E   E   M   S   E   E   M   S   E   
E   M   S   E   E   M   S   E   E   M   S   E   E   M   S   E   E   M   S   E   
E   M   S   E   E   M   S   E   E   M   S   E   E   M   S   E   E   M   S   E   
E   M   S   E   E   M   S   E   E   M   S   E   E   M   S   E   E   M   S   E   
E   M   S   E   E   M   S   E   E   M   S   E   E   M   S   E   E   M   S   E   
E   M   S   E   E   M   S   E   E   M   S   E   E   M   S   E   E   M   S   E   
E   M   S   E   E   M   S   E   E   M   S   E   E   M   S   E   E   M   S   E   
E   M   S   E   E   M   S   E   E   M   S   E   E   M   S   E   E   M   S   E   
E   M   S   E   E   M   S   E   E   M   S   E   E   M   S   E   E   M   S   E   
E   M   S   E   E   M   S   E   E   M   S   E   E   M   S   E   E   M   S   E   
E   M   S   E   E   M   S   E   E   M   S   E   E   M   S   E   E   M   S   E   
E   M   S   E   E   M   S   E   E   M   S   E   E   M   S   E   E   M   S   E   
E   M   S   E   E   M   S   E   E   M   S   E   E   M   S   E   E   M   S   E   
E   M   S   E   E   M   S   E   E   M   S   E   E   M   S   E   E   M   S   E   
E   M   S   E   E   M   S   E   E   M   S   E   E   M   S   E   E   M   S   E   
E   M   S   E   E   M   S   E   E   M   S   E   E   M   S   E   E   M   S   E   
E   M   S   E   E   M   S   E   E   M   S   E   E   M   S   E   E   M   S   E   
E   M   S   E   E   M   S   E   E   M   S   E   E   M   S   E   E   M   S   E   
E   M   S   E   E   M   S   E   E   M   S   E   E   M   S   E   E   M   S   E   
E   M   S   E   E   M   S   E   E   M   S   E   E   M   S   E   E   M   S   E   
E   M   S   E   E   M   S   E   E   M   S   E   E   M   S   E   E   M   S   E   
E   M   S   E   E   M   S   E   E   M   S   E   E   M   S   E   E   M   S   E   
E   M   S   E   E   M   S   E   E   M   S   E   E   M   S   E   E   M   S   E   
E   M   S   E   E   M   S   E   E   M   S   E   E   M   S   E   E   M   S   E   
E   M   S   E   E   M   S   E   E   M   S   E   E   M   S   E   E   M   S   E   
E   M   S   E   E   M   S   E   E   M   S   E   E   M   S   E   E   M   S   E   
E   M   S   E   E   M   S   E   E   M   S   E   E   M   S   E   E   M   S   E   
E   M   S   E   E   M   S   E   E   M   S   E   E   M   S   E   E   M   S   E   
E   M   S   E   E   
%FLAG JOIN_ARRAY                                                                
%FORMAT(10I8)                                                                   
       0       0       0       0       0       0       0       0       0       0
       0       0       0       0       0       0       0       0       0       0
       0       0       0       0       0       0       0       0       0       0
       0       0       0       0       0       0       0       0       0       0
       0       0       0       0       0       0       0       0       0       0
       0       0       0       0       0       0       0       0       0       0
       0       0       0       0       0       0       0       0       0       0
       0       0       0       0       0       0       0       0       0       0
       0       0       0       0       0       0       0       0       0       0
       0       0       0       0       0       0       0       0       0       0
       0       0       0       0       0       0       0       0       0       0
       0       0       0       0       0       0       0       0       0       0
       0       0       0       0       0       0       0       0       0       0
       0       0       0       0       0       0       0       0       0       0
       0       0       0       0       0       0       0       0       0       0
       0       0       0       0       0       0       0       0       0       0
       0       0       0       0       0       0       0       0       0       0
       0       0       0       0       0       0       0       0       0       0
       0       0       0       0       0       0       0       0       0       0
       0       0       0       0       0       0       0       0       0       0
       0       0       0       0       0       0       0       0       0       0
       0       0       0       0       0       0       0       0       0       0
       0       0       0       0       0       0       0       0       0       0
       0       0       0       0       0       0       0       0       0       0
       0       0       0       0       0       0       0       0       0       0
       0       0       0       0       0       0       0       0       0       0
       0       0       0       0       0       0       0       0       0       0
       0       0       0       0       0       0       0       0       0       0
       0       0       0       0       0       0       0       0       0       0
       0       0       0       0       0       0       0       0       0       0
       0       0       0       0       0       0       0       0       0       0
       0       0       0       0       0       0       0       0       0       0
       0       0       0       0       0       0       0       0       0       0
       0       0       0       0       0       0       0       0       0       0
       0       0       0       0       0       0       0       0       0       0
       0       0       0       0       0       0       0       0       0       0
       0       0       0       0       0       0       0       0       0       0
       0       0       0       0       0       0       0       0       0       0
       0       0       0       0       0       0       0       0       0       0
       0       0       0       0       0       0       0       0       0       0
       0       0       0       0       0       0       0       0       0       0
       0       0       0       0       0       0       0       0       0       0
       0       0       0       0       0       0       0       0       0       0
       0       0       0       0       0       0       0       0       0       0
       0       0       0       0       0       0       0       0       0       0
       0       0       0       0       0       0       0       0       0       0
       0       0       0       0       0       0       0       0       0       0
       0       0       0       0       0       0       0       0       0       0
       0       0       0       0       0       0       0       0       0       0
       0       0       0       0       0       0       0       0       0       0
       0       0       0       0       0       0       0       0       0       0
       0       0       0       0       0       0       0       0       0       0
       0       0       0       0       0       0       0       0       0       0
       0       0       0       0       0       0       0       0       0       0
       0       0       0       0       0       0       0       0       0       0
       0       0       0       0       0       0       0       0       0       0
       0       0       0       0       0       0       0       0       0       0
       0       0       0       0       0       0       0       0       0       0
       0       0       0       0       0       0       0       0       0       0
       0       0       0       0       0       0       0       0       0       0
       0       0       0       0       0       0       0       0       0       0
       0       0       0       0       0       0       0       0       0       0
       0       0       0       0       0       0       0       0       0       0
       0       0       0       0       0       0       0       0       0       0
       0       0       0       0       0       0       0       0       0       0
       0       0       0       0       0       0       0       0       0       0
       0       0       0       0       0       0       0       0       0       0
       0       0       0       0       0       0       0       0       0       0
       0       0       0       0       0       0       0       0       0       0
       0       0       0       0       0       0       0       0       0       0
       0       0       0       0       0       0       0       0       0       0
       0       0       0       0       0       0       0       0       0       0
       0       0       0       0       0       0       0       0       0       0
       0       0       0       0       0       0       0       0       0       0
       0       0       0       0       0       0       0       0       0       0
       0       0       0       0       0       0       0       0       0       0
       0       0       0       0       0       0       0       0       0       0
       0       0       0       0       0       0       0       0       0       0
       0       0       0       0       0       0       0       0       0       0
       0       0       0       0       0       0       0       0       0       0
       0       0       0       0       0       0       0       0       0       0
       0       0       0       0       0       0       0       0       0       0
       0       0       0       0       0       0       0       0       0       0
       0       0       0       0       0       0       0       0       0       0
       0       0       0       0       0       0       0       0       0       0
       0       0       0       0       0       0       0       0       0       0
       0       0       0       0       0       0       0       0       0       0
       0       0       0       0       0       0       0       0       0       0
       0       0       0       0       0       0       0       0       0       0
       0       0       0       0       0       0       0       0       0       0
       0       0       0       0       0       0       0       0       0       0
       0       0       0       0       0       0       0       0       0       0
       0       0       0       0       0       0       0       0       0       0
       0       0       0       0       0       0       0       0       0       0
       0       0       0       0       0       0       0       0       0       0
       0       0       0       0       0       0       0       0       0       0
       0       0       0       0       0       0       0       0       0       0
       0       0       0       0       0       0       0       0       0       0
       0       0       0       0       0       0       0       0       0       0
       0       0       0       0       0       0       0       0       0       0
       0       0       0       0       0       0       0       0       0       0
       0       0       0       0       0       0       0       0       0       0
       0       0       0       0       0       0       0       0       0       0
       0       0       0       0       0       0       0       0       0       0
       0       0       0       0       0       0       0       0       0       0
       0       0       0       0       0       0       0       0       0       0
       0       0       0       0       0       0       0       0       0       0
       0       0       0       0       0       0       0       0       0       0
       0       0       0       0       0       0       0       0       0       0
       0       0       0       0       0       0       0       0       0       0
       0       0       0       0       0       0       0       0       0       0
       0       0       0       0       0       0       0       0       0       0
       0       0       0       0       0       0       0       0       0       0
       0       0       0       0       0       0       0       0       0       0
       0       0       0       0       0       0       0       0       0       0
       0       0       0       0       0       0       0       0       0       0
       0       0       0       0       0       0       0       0       0       0
       0       0       0       0       0       0       0       0       0       0
       0       0       0       0       0       0       0       0       0       0
       0       0       0       0       0       0       0       0       0       0
       0       0       0       0       0       0       0       0       0       0
       0       0       0       0       0       0       0       0       0       0
       0       0       0       0       0       0       0       0       0       0
       0       0       0       0       0       0       0       0       0       0
       0       0       0       0       0       0       0       0       0       0
       0       0       0       0       0       0       0       0       0       0
       0       0       0       0       0       0       0       0       0       0
       0       0       0       0       0       0       0       0       0       0
       0       0       0       0       0       0       0       0       0       0
       0       0       0       0       0       0       0       0       0       0
       0       0       0       0       0       0       0       0       0       0
       0       0       0       0       0       0       0       0       0       0
       0       0       0       0       0       0       0       0       0       0
       0       0       0       0       0       0       0       0       0       0
       0       0       0       0       0       0       0       0       0       0
       0       0       0       0       0       0       0       0       0       0
       0       0       0       0       0       0       0       0       0       0
       0       0       0       0       0       0       0       0       0       0
       0       0       0       0       0       0       0       0       0       0
       0       0       0       0       0       0       0       0       0       0
       0       0       0       0       0       0       0       0       0       0
       0       0       0       0       0       0       0       0       0       0
       0       0       0       0       0       0       0       0       0       0
       0       0       0       0       0       0       0       0       0       0
       0       0       0       0       0       0       0       0       0       0
       0       0       0       0       0       0       0       0       0       0
       0       0       0       0       0       0       0       0       0       0
       0       0       0       0       0       0       0       0       0       0
       0       0       0       0       0       0       0       0       0       0
       0       0       0       0       0       0       0       0       0       0
       0       0       0       0       0       0       0       0       0       0
       0       0       0       0       0       0       0       0       0       0
       0       0       0       0       0       0       0       0       0       0
       0       0       0       0       0       0       0       0       0       0
       0       0       0       0       0       0       0       0       0       0
       0       0       0       0       0       0       0       0       0       0
       0       0       0       0       0       0       0       0       0       0
       0       0       0       0       0       0       0       0       0       0
       0       0       0       0       0       0       0       0       0       0
       0       0       0       0       0       0       0       0       0       0
       0       0       0       0       0       0       0       0       0       0
       0       0       0       0       0       0       0       0       0       0
       0       0       0       0       0       0       0       0       0       0
       0       0       0       0       0       0       0       0       0       0
       0       0       0       0       0       0       0       0       0       0
       0       0       0       0       0       0       0       0       0       0
       0       0       0       0       0       0       0       0       0       0
       0       0       0       0       0       0       0       0       0       0
       0       0       0       0       0       0       0       0       0       0
       0       0       0       0       0       0       0       0       0       0
       0       0       0       0       0       0       0       0       0       0
       0       0       0       0       0       0       0       0       0       0
       0       0       0       0       0       0       0       0       0       0
       0       0       0       0       0       0       0       0       0       0
       0       0       0       0       0       0       0       0       0       0
       0       0       0       0       0       0       0       0       0       0
       0       0       0       0       0       0       0       0       0       0
       0       0       0       0       0       0       0       0       0       0
       0       0       0       0       0       0       0       0       0       0
       0       0       0       0       0       0       0       0       0       0
       0       0       0       0       0       0       0       0       0       0
       0       0       0       0       0       0       0       0       0       0
       0       0       0       0       0       0       0       0       0       0
       0       0       0       0       0       0       0       0       0       0
       0       0       0       0       0       0       0       0       0       0
       0       0       0       0       0       0       0       0       0       0
       0       0       0       0       0       0       0       0       0       0
       0       0       0       0       0       0       0       0       0       0
       0       0       0       0       0       0       0       0       0       0
       0       0       0       0       0       0       0       0       0       0
       0       0       0       0       0       0       0       0       0       0
       0       0       0       0       0       0       0       0       0       0
       0       0       0       0       0       0       0       0       0       0
       0       0       0       0       0       0       0       0       0       0
       0       0       0       0       0       0       0       0       0       0
       0       0       0       0       0       0       0       0       0       0
       0       0       0       0       0       0       0       0       0       0
       0       0       0       0       0       0       0       0       0       0
       0       0       0       0       0       0       0       0       0       0
       0       0       0       0       0       0       0       0       0       0
       0       0       0       0       0       0       0       0       0       0
       0       0       0       0       0       0       0       0       0       0
       0       0       0       0       0       0       0       0       0       0
       0       0       0       0       0       0       0       0       0       0
       0       0       0       0       0       0       0       0       0       0
       0       0       0       0       0       0       0       0       0       0
       0       0       0       0       0       0       0       0       0       0
       0       0       0       0       0       0       0       0       0       0
       0       0       0       0       0       0       0       0       0       0
       0       0       0       0       0       0       0       0       0       0
       0       0       0       0       0       0       0       0       0       0
       0       0       0       0       0       0       0       0       0       0
       0       0       0       0       0       0       0       0       0       0
       0       0       0       0       0       0       0       0       0       0
       0       0       0       0       0       0       0       0       0       0
       0       0       0       0       0       0       0       0       0       0
       0       0       0       0       0       0       0       0       0       0
       0       0       0       0       0       0       0       0       0       0
       0       0       0       0       0       0       0       0       0       0
       0       0       0       0       0       0       0       0       0       0
       0       0       0       0       0       0       0       0       0       0
       0       0       0       0       0       0       0       0       0       0
       0       0       0       0       0       0       0       0       0       0
       0       0       0       0       0       0       0       0       0       0
       0       0       0       0       0       0       0       0       0       0
       0       0       0       0       0       0       0       0       0       0
       0       0       0       0       0       0       0       0       0       0
       0       0       0       0       0       0       0       0       0       0
       0       0       0       0       0       0       0       0       0       0
       0       0       0       0       0       0       0       0       0       0
       0       0       0       0       0       0       0       0       0       0
       0       0       0       0       0       0       0       0       0       0
       0       0       0       0       0       0       0       0       0       0
       0       0       0       0       0       0       0       0       0       0
       0       0       0       0       0       0       0       0       0       0
       0       0       0       0       0       0       0       0       0       0
       0       0       0       0       0       0       0       0       0       0
       0       0       0       0       0       0       0       0       0       0
       0       0       0       0       0       0       0       0       0       0
       0       0       0       0       0       0       0       0       0       0
       0       0       0       0       0       0       0       0       0       0
       0       0       0       0       0       0       0       0       0       0
       0       0       0       0       0       0       0       0       0       0
       0       0       0       0       0       0       0       0       0       0
       0       0       0       0       0       0       0       0       0       0
       0       0       0       0       0       0       0       0       0       0
       0       0       0       0       0       0       0       0       0       0
       0       0       0       0       0       0       0       0       0       0
       0       0       0       0       0       0       0       0       0       0
       0       0       0       0       0       0       0       0       0       0
       0       0       0       0       0       0       0       0       0       0
       0       0       0       0       0       0       0       0       0       0
       0       0       0       0       0       0       0       0       0       0
       0       0       0       0       0       0       0       0       0       0
       0       0       0       0       0       0       0       0       0       0
       0       0       0       0       0       0       0       0       0       0
       0       0       0       0       0       0       0       0       0       0
       0       0       0       0       0       0       0       0       0       0
       0       0       0       0       0       0       0       0       0       0
       0       0       0       0       0       0       0       0       0       0
       0       0       0       0       0       0       0       0       0       0
       0       0       0       0       0       0       0       0       0       0
       0       0       0       0       0       0       0       0       0       0
       0       0       0       0       0       0       0       0       0       0
       0       0       0       0       0       0       0       0       0       0
       0       0       0       0       0       0       0       0       0       0
       0       0       0       0       0       0       0       0       0       0
       0       0       0       0       0       0       0       0       0       0
       0       0       0       0       0       0       0       0       0       0
       0       0       0       0       0       0       0       0       0       0
       0       0       0       0       0       0       0       0       0       0
       0       0       0       0       0       0       0       0       0       0
       0       0       0       0       0       0       0       0       0       0
       0       0       0       0       0       0       0       0       0       0
       0       0       0       0       0       0       0       0       0       0
       0       0       0       0       0       0       0       0       0       0
       0       0       0       0       0       0       0       0       0       0
       0       0       0       0       0       0       0       0       0       0
       0       0       0       0       0       0       0       0       0       0
       0       0       0       0       0       0       0       0       0       0
       0       0       0       0       0       0       0       0       0       0
       0       0       0       0       0       0       0       0       0       0
       0       0       0       0       0       0       0       0       0       0
       0       0       0       0       0       0       0       0       0       0
       0       0       0       0       0       0       0       0       0       0
       0       0       0       0       0       0       0       0       0       0
       0       0       0       0       0       0       0       0       0       0
       0       0       0       0       0       0       0       0       0       0
       0       0       0       0       0       0       0       0       0       0
       0       0       0       0       0       0       0       0       0       0
       0       0       0       0       0       0       0       0       0       0
       0       0       0       0       0       0       0       0       0       0
       0       0       0       0       0       0       0       0       0       0
       0       0       0       0       0       0       0       0       0       0
       0       0       0       0       0       0       0       0       0       0
       0       0       0       0       0       0       0       0       0       0
       0       0       0       0       0       0       0       0       0       0
       0       0       0       0       0       0       0       0       0       0
       0       0       0       0       0       0       0       0       0       0
       0       0       0       0       0       0       0       0       0       0
       0       0       0       0       0       0       0       0       0       0
       0       0       0       0       0       0       0       0       0       0
       0       0       0       0       0       0       0       0       0       0
       0       0       0       0       0       0       0       0       0       0
       0       0       0       0       0       0       0       0       0       0
       0       0       0       0       0       0       0       0       0       0
       0       0       0       0       0       0       0       0       0       0
       0       0       0       0       0       0       0       0       0       0
       0       0       0       0       0       0       0       0       0       0
       0       0       0       0       0       0       0       0       0       0
       0       0       0       0       0       0       0       0       0       0
       0       0       0       0       0       0       0       0       0       0
       0       0       0       0       0       0       0       0       0       0
       0       0       0       0       0       0       0       0       0       0
       0       0       0       0       0       0       0       0       0       0
       0       0       0       0       0       0       0       0       0       0
       0       0       0       0       0       0       0       0       0       0
       0       0       0       0       0       0       0       0       0       0
       0       0       0       0       0       0       0       0       0       0
       0       0       0       0       0       0       0       0       0       0
       0       0       0       0       0       0       0       0       0       0
       0       0       0       0       0       0       0       0       0       0
       0       0       0       0       0       0       0       0       0       0
       0       0       0       0       0       0       0       0       0       0
       0       0       0       0       0       0       0       0       0       0
       0       0       0       0       0       0       0       0       0       0
       0       0       0       0       0       0       0       0       0       0
       0       0       0       0       0       0       0       0       0       0
       0       0       0       0       0       0       0       0       0       0
       0       0       0       0       0       0       0       0       0       0
       0       0       0       0       0       0       0       0       0       0
       0       0       0       0       0       0       0       0       0       0
       0       0       0       0       0       0       0       0       0       0
       0       0       0       0       0       0       0       0       0       0
       0       0       0       0       0       0       0       0       0       0
       0       0       0       0       0       0       0       0       0       0
       0       0       0       0       0       0       0       0       0       0
       0       0       0       0       0       0       0       0       0       0
       0       0       0       0       0       0       0       0       0       0
       0       0       0       0       0       0       0       0       0       0
       0       0       0       0       0       0       0       0       0       0
       0       0       0       0       0       0       0       0       0       0
       0       0       0       0       0       0       0       0       0       0
       0       0       0       0       0       0       0       0       0       0
       0       0       0       0       0       0       0       0       0       0
       0       0       0       0       0       0       0       0       0       0
       0       0       0       0       0       0       0       0       0       0
       0       0       0       0       0       0       0       0       0       0
       0       0       0       0       0       0       0       0       0       0
       0       0       0       0       0       0       0       0       0       0
       0       0       0       0       0       0       0       0       0       0
       0       0       0       0       0       0       0       0       0       0
       0       0       0       0       0       0       0       0       0       0
       0       0       0       0       0       0       0       0       0       0
       0       0       0       0       0       0       0       0       0       0
       0       0       0       0       0       0       0       0       0       0
       0       0       0       0       0       0       0       0       0       0
       0       0       0       0       0       0       0       0       0       0
       0       0       0       0       0       0       0       0       0       0
       0       0       0       0       0       0       0       0       0       0
       0       0       0       0       0       0       0       0       0       0
       0       0       0       0       0       0       0       0       0       0
       0       0       0       0       0       0       0       0       0       0
       0       0       0       0       0       0       0       0       0       0
       0       0       0       0       0       0       0       0       0       0
       0       0       0       0       0       0       0       0       0       0
       0       0       0       0       0       0       0       0       0       0
       0       0       0       0       0       0       0       0       0       0
       0       0       0       0       0       0       0       0       0       0
       0       0       0       0       0       0       0       0       0       0
       0       0       0       0       0       0       0       0       0       0
       0       0       0       0       0       0       0       0       0       0
       0       0       0       0       0       0       0       0       0       0
       0       0       0       0       0       0       0       0       0       0
       0       0       0       0       0       0       0       0       0       0
       0       0       0       0       0       0       0       0       0       0
       0       0       0       0       0       0       0       0       0       0
       0       0       0       0       0       0       0       0       0       0
       0       0       0       0       0       0       0       0       0       0
       0       0       0       0       0       0       0       0       0       0
       0       0       0       0       0       0       0       0       0       0
       0       0       0       0       0       0       0       0       0       0
       0       0       0       0       0       0       0       0       0       0
       0       0       0       0       0       0       0       0       0       0
       0       0       0       0       0       0       0       0       0       0
       0       0       0       0       0       0       0       0       0       0
       0       0       0       0       0       0       0       0       0       0
       0       0       0       0       0       0       0       0       0       0
       0       0       0       0       0       0       0       0       0       0
       0       0       0       0       0       0       0       0       0       0
       0       0       0       0       0       0       0       0       0       0
       0       0       0       0       0       0       0       0       0       0
       0       0       0       0       0       0       0       0       0       0
       0       0       0       0       0       0       0       0       0       0
       0       0       0       0       0       0       0       0       0       0
       0       0       0       0       0       0       0       0       0       0
       0       0       0       0       0       0       0       0       0       0
       0       0       0       0       0       0       0       0       0       0
       0       0       0       0       0       0       0       0       0       0
       0       0       0       0       0       0       0       0       0       0
       0       0       0       0       0       0       0       0       0       0
       0       0       0       0       0       0       0       0       0       0
       0       0       0       0       0       0       0       0       0       0
       0       0       0       0       0       0       0       0       0       0
       0       0       0       0       0       0       0       0       0       0
       0       0       0       0       0       0       0       0       0       0
       0       0       0       0       0       0       0       0       0       0
       0       0       0       0       0       0       0       0       0       0
       0       0       0       0       0       0       0       0       0       0
       0       0       0       0       0       0       0       0       0       0
       0       0       0       0       0       0       0       0       0       0
       0       0       0       0       0       0       0       0       0       0
       0       0       0       0       0       0       0       0       0       0
       0       0       0       0       0       0       0       0       0       0
       0       0       0       0       0       0       0       0       0       0
       0       0       0       0       0       0       0       0       0       0
       0       0       0       0       0       0       0       0       0       0
       0       0       0       0       0       0       0       0       0       0
       0       0       0       0       0       0       0       0       0       0
       0       0       0       0       0       0       0       0       0       0
       0       0       0       0       0       0       0       0       0       0
       0       0       0       0       0       0       0       0       0       0
       0       0       0       0       0       0       0       0       0       0
       0       0       0       0       0       0       0       0       0       0
       0       0       0       0       0       0       0       0       0       0
       0       0       0       0       0       0       0       0       0       0
       0       0       0       0       0       0       0       0       0       0
       0       0       0       0       0       0       0       0       0       0
       0       0       0       0       0       0       0       0       0       0
       0       0       0       0       0       0       0       0       0       0
       0       0       0       0       0       0       0       0       0       0
       0       0       0       0       0       0       0       0       0       0
       0       0       0       0       0       0       0       0       0       0
       0       0       0       0       0       0       0       0       0       0
       0       0       0       0       0       0       0       0       0       0
       0       0       0       0       0       0       0       0       0       0
       0       0       0       0       0       0       0       0       0       0
       0       0       0       0       0       0       0       0       0       0
       0       0       0       0       0       0       0       0       0       0
       0       0       0       0       0       0       0       0       0       0
       0       0       0       0       0       0       0       0       0       0
       0       0       0       0       0       0       0       0       0       0
       0       0       0       0       0       0       0       0       0       0
       0       0       0       0       0       0       0       0       0       0
       0       0       0       0       0       0       0       0       0       0
       0       0       0       0       0       0       0       0       0       0
       0       0       0       0       0       0       0       0       0       0
       0       0       0       0       0       0       0       0       0       0
       0       0       0       0       0       0       0       0       0       0
       0       0       0       0       0       0       0       0       0       0
       0       0       0       0       0       0       0       0       0       0
       0       0       0       0       0       0       0       0       0       0
       0       0       0       0       0       0       0       0       0       0
       0       0       0       0       0       0       0       0       0       0
       0       0       0       0       0       0       0       0       0       0
       0       0       0       0       0       0       0       0       0       0
       0       0       0       0       0       0       0       0       0       0
       0       0       0       0       0       0       0       0       0       0
       0       0       0       0       0       0       0       0       0       0
       0       0       0       0       0       0       0       0       0       0
       0       0       0       0       0       0       0       0       0       0
       0       0       0       0       0       0       0       0       0       0
       0       0       0       0       0       0       0       0       0       0
       0       0       0       0       0       0       0       0       0       0
       0       0       0       0       0       0       0       0       0       0
       0       0       0       0       0       0       0       0       0       0
       0       0       0       0       0       0       0       0       0       0
       0       0       0       0       0       0       0       0       0       0
       0       0       0       0       0       0       0       0       0       0
       0       0       0       0       0       0       0       0       0       0
       0       0       0       0       0       0       0       0       0       0
       0       0       0       0       0       0       0       0       0       0
       0       0       0       0       0       0       0       0       0       0
       0       0       0       0       0       0       0       0       0       0
       0       0       0       0       0       0       0       0       0       0
       0       0       0       0       0       0       0       0       0       0
       0       0       0       0       0       0       0       0       0       0
       0       0       0       0       0       0       0       0       0       0
       0       0       0       0       0       0       0       0       0       0
       0       0       0       0       0       0       0       0       0       0
       0       0       0       0       0       0       0       0       0       0
       0       0       0       0       0       0       0       0       0       0
       0       0       0       0       0       0       0       0       0       0
       0       0       0       0       0       0       0       0       0       0
       0       0       0       0       0       0       0       0       0       0
       0       0       0       0       0       0       0       0       0       0
       0       0       0       0       0       0       0       0       0       0
       0       0       0       0       0       0       0       0       0       0
       0       0       0       0       0       0       0       0       0       0
       0       0       0       0       0       0       0       0       0       0
       0       0       0       0       0
%FLAG IROTAT                                                                    
%FORMAT(10I8)                                                                   
       0       0       0       0       0       0       0       0       0       0
       0       0       0       0       0       0       0       0       0       0
       0       0       0       0       0       0       0       0       0       0
       0       0       0       0       0       0       0       0       0       0
       0       0       0       0       0       0       0       0       0       0
       0       0       0       0       0       0       0       0       0       0
       0       0       0       0       0       0       0       0       0       0
       0       0       0       0       0       0       0       0       0       0
       0       0       0       0       0       0       0       0       0       0
       0       0       0       0       0       0       0       0       0       0
       0       0       0       0       0       0       0       0       0       0
       0       0       0       0       0       0       0       0       0       0
       0       0       0       0       0       0       0       0       0       0
       0       0       0       0       0       0       0       0       0       0
       0       0       0       0       0       0       0       0       0       0
       0       0       0       0       0       0       0       0       0       0
       0       0       0       0       0       0       0       0       0       0
       0       0       0       0       0       0       0       0       0       0
       0       0       0       0       0       0       0       0       0       0
       0       0       0       0       0       0       0       0       0       0
       0       0       0       0       0       0       0       0       0       0
       0       0       0       0       0       0       0       0       0       0
       0       0       0       0       0       0       0       0       0       0
       0       0       0       0       0       0       0       0       0       0
       0       0       0       0       0       0       0       0       0       0
       0       0       0       0       0       0       0       0       0       0
       0       0       0       0       0       0       0       0       0       0
       0       0       0       0       0       0       0       0       0       0
       0       0       0       0       0       0       0       0       0       0
       0       0       0       0       0       0       0       0       0       0
       0       0       0       0       0       0       0       0       0       0
       0       0       0       0       0       0       0       0       0       0
       0       0       0       0       0       0       0       0       0       0
       0       0       0       0       0       0       0       0       0       0
       0       0       0       0       0       0       0       0       0       0
       0       0       0       0       0       0       0       0       0       0
       0       0       0       0       0       0       0       0       0       0
       0       0       0       0       0       0       0       0       0       0
       0       0       0       0       0       0       0       0       0       0
       0       0       0       0       0       0       0       0       0       0
       0       0       0       0       0       0       0       0       0       0
       0       0       0       0       0       0       0       0       0       0
       0       0       0       0       0       0       0       0       0       0
       0       0       0       0       0       0       0       0       0       0
       0       0       0       0       0       0       0       0       0       0
       0       0       0       0       0       0       0       0       0       0
       0       0       0       0       0       0       0       0       0       0
       0       0       0       0       0       0       0       0       0       0
       0       0       0       0       0       0       0       0       0       0
       0       0       0       0       0       0       0       0       0       0
       0       0       0       0       0       0       0       0       0       0
       0       0       0       0       0       0       0       0       0       0
       0       0       0       0       0       0       0       0       0       0
       0       0       0       0       0       0       0       0       0       0
       0       0       0       0       0       0       0       0       0       0
       0       0       0       0       0       0       0       0       0       0
       0       0       0       0       0       0       0       0       0       0
       0       0       0       0       0       0       0       0       0       0
       0       0       0       0       0       0       0       0       0       0
       0       0       0       0       0       0       0       0       0       0
       0       0       0       0       0       0       0       0       0       0
       0       0       0       0       0       0       0       0       0       0
       0       0       0       0       0       0       0       0       0       0
       0       0       0       0       0       0       0       0       0       0
       0       0       0       0       0       0       0       0       0       0
       0       0       0       0       0       0       0       0       0       0
       0       0       0       0       0       0       0       0       0       0
       0       0       0       0       0       0       0       0       0       0
       0       0       0       0       0       0       0       0       0       0
       0       0       0       0       0       0       0       0       0       0
       0       0       0       0       0       0       0       0       0       0
       0       0       0       0       0       0       0       0       0       0
       0       0       0       0       0       0       0       0       0       0
       0       0       0       0       0       0       0       0       0       0
       0       0       0       0       0       0       0       0       0       0
       0       0       0       0       0       0       0       0       0       0
       0       0       0       0       0       0       0       0       0       0
       0       0       0       0       0       0       0       0       0       0
       0       0       0       0       0       0       0       0       0       0
       0       0       0       0       0       0       0       0       0       0
       0       0       0       0       0       0       0       0       0       0
       0       0       0       0       0       0       0       0       0       0
       0       0       0       0       0       0       0       0       0       0
       0       0       0       0       0       0       0       0       0       0
       0       0       0       0       0       0       0       0       0       0
       0       0       0       0       0       0       0       0       0       0
       0       0       0       0       0       0       0       0       0       0
       0       0       0       0       0       0       0       0       0       0
       0       0       0       0       0       0       0       0       0       0
       0       0       0       0       0       0       0       0       0       0
       0       0       0       0       0       0       0       0       0       0
       0       0       0       0       0       0       0       0       0       0
       0       0       0       0       0       0       0       0       0       0
       0       0       0       0       0       0       0       0       0       0
       0       0       0       0       0       0       0       0       0       0
       0       0       0       0       0       0       0       0       0       0
       0       0       0       0       0       0       0       0       0       0
       0       0       0       0       0       0       0       0       0       0
       0       0       0       0       0       0       0       0       0       0
       0       0       0       0       0       0       0       0       0       0
       0       0       0       0       0       0       0       0       0       0
       0       0       0       0       0       0       0       0       0       0
       0       0       0       0       0       0       0       0       0       0
       0       0       0       0       0       0       0       0       0       0
       0       0       0       0       0       0       0       0       0       0
       0       0       0       0       0       0       0       0       0       0
       0       0       0       0       0       0       0       0       0       0
       0       0       0       0       0       0       0       0       0       0
       0       0       0       0       0       0       0       0       0       0
       0       0       0       0       0       0       0       0       0       0
       0       0       0       0       0       0       0       0       0       0
       0       0       0       0       0       0       0       0       0       0
       0       0       0       0       0       0       0       0       0       0
       0       0       0       0       0       0       0       0       0       0
       0       0       0       0       0       0       0       0       0       0
       0       0       0       0       0       0       0       0       0       0
       0       0       0       0       0       0       0       0       0       0
       0       0       0       0       0       0       0       0       0       0
       0       0       0       0       0       0       0       0       0       0
       0       0       0       0       0       0       0       0       0       0
       0       0       0       0       0       0       0       0       0       0
       0       0       0       0       0       0       0       0       0       0
       0       0       0       0       0       0       0       0       0       0
       0       0       0       0       0       0       0       0       0       0
       0       0       0       0       0       0       0       0       0       0
       0       0       0       0       0       0       0       0       0       0
       0       0       0       0       0       0       0       0       0       0
       0       0       0       0       0       0       0       0       0       0
       0       0       0       0       0       0       0       0       0       0
       0       0       0       0       0       0       0       0       0       0
       0       0       0       0       0       0       0       0       0       0
       0       0       0       0       0       0       0       0       0       0
       0       0       0       0       0       0       0       0       0       0
       0       0       0       0       0       0       0       0       0       0
       0       0       0       0       0       0       0       0       0       0
       0       0       0       0       0       0       0       0       0       0
       0       0       0       0       0       0       0       0       0       0
       0       0       0       0       0       0       0       0       0       0
       0       0       0       0       0       0       0       0       0       0
       0       0       0       0       0       0       0       0       0       0
       0       0       0       0       0       0       0       0       0       0
       0       0       0       0       0       0       0       0       0       0
       0       0       0       0       0       0       0       0       0       0
       0       0       0       0       0       0       0       0       0       0
       0       0       0       0       0       0       0       0       0       0
       0       0       0       0       0       0       0       0       0       0
       0       0       0       0       0       0       0       0       0       0
       0       0       0       0       0       0       0       0       0       0
       0       0       0       0       0       0       0       0       0       0
       0       0       0       0       0       0       0       0       0       0
       0       0       0       0       0       0       0       0       0       0
       0       0       0       0       0       0       0       0       0       0
       0       0       0       0       0       0       0       0       0       0
       0       0       0       0       0       0       0       0       0       0
       0       0       0       0       0       0       0       0       0       0
       0       0       0       0       0       0       0       0       0       0
       0       0       0       0       0       0       0       0       0       0
       0       0       0       0       0       0       0       0       0       0
       0       0       0       0       0       0       0       0       0       0
       0       0       0       0       0       0       0       0       0       0
       0       0       0       0       0       0       0       0       0       0
       0       0       0       0       0       0       0       0       0       0
       0       0       0       0       0       0       0       0       0       0
       0       0       0       0       0       0       0       0       0       0
       0       0       0       0       0       0       0       0       0       0
       0       0       0       0       0       0       0       0       0       0
       0       0       0       0       0       0       0       0       0       0
       0       0       0       0       0       0       0       0       0       0
       0       0       0       0       0       0       0       0       0       0
       0       0       0       0       0       0       0       0       0       0
       0       0       0       0       0       0       0       0       0       0
       0       0       0       0       0       0       0       0       0       0
       0       0       0       0       0       0       0       0       0       0
       0       0       0       0       0       0       0       0       0       0
       0       0       0       0       0       0       0       0       0       0
       0       0       0       0       0       0       0       0       0       0
       0       0       0       0       0       0       0       0       0       0
       0       0       0       0       0       0       0       0       0       0
       0       0       0       0       0       0       0       0       0       0
       0       0       0       0       0       0       0       0       0       0
       0       0       0       0       0       0       0       0       0       0
       0       0       0       0       0       0       0       0       0       0
       0       0       0       0       0       0       0       0       0       0
       0       0       0       0       0       0       0       0       0       0
       0       0       0       0       0       0       0       0       0       0
       0       0       0       0       0       0       0       0       0       0
       0       0       0       0       0       0       0       0       0       0
       0       0       0       0       0       0       0       0       0       0
       0       0       0       0       0       0       0       0       0       0
       0       0       0       0       0       0       0       0       0       0
       0       0       0       0       0       0       0       0       0       0
       0       0       0       0       0       0       0       0       0       0
       0       0       0       0       0       0       0       0       0       0
       0       0       0       0       0       0       0       0       0       0
       0       0       0       0       0       0       0       0       0       0
       0       0       0       0       0       0       0       0       0       0
       0       0       0       0       0       0       0       0       0       0
       0       0       0       0       0       0       0       0       0       0
       0       0       0       0       0       0       0       0       0       0
       0       0       0       0       0       0       0       0       0       0
       0       0       0       0       0       0       0       0       0       0
       0       0       0       0       0       0       0       0       0       0
       0       0       0       0       0       0       0       0       0       0
       0       0       0       0       0       0       0       0       0       0
       0       0       0       0       0       0       0       0       0       0
       0       0       0       0       0       0       0       0       0       0
       0       0       0       0       0       0       0       0       0       0
       0       0       0       0       0       0       0       0       0       0
       0       0       0       0       0       0       0       0       0       0
       0       0       0       0       0       0       0       0       0       0
       0       0       0       0       0       0       0       0       0       0
       0       0       0       0       0       0       0       0       0       0
       0       0       0       0       0       0       0       0       0       0
       0       0       0       0       0       0       0       0       0       0
       0       0       0       0       0       0       0       0       0       0
       0       0       0       0       0       0       0       0       0       0
       0       0       0       0       0       0       0       0       0       0
       0       0       0       0       0       0       0       0       0       0
       0       0       0       0       0       0       0       0       0       0
       0       0       0       0       0       0       0       0       0       0
       0       0       0       0       0       0       0       0       0       0
       0       0       0       0       0       0       0       0       0       0
       0       0       0       0       0       0       0       0       0       0
       0       0       0       0       0       0       0       0       0       0
       0       0       0       0       0       0       0       0       0       0
       0       0       0       0       0       0       0       0       0       0
       0       0       0       0       0       0       0       0       0       0
       0       0       0       0       0       0       0       0       0       0
       0       0       0       0       0       0       0       0       0       0
       0       0       0       0       0       0       0       0       0       0
       0       0       0       0       0       0       0       0       0       0
       0       0       0       0       0       0       0       0       0       0
       0       0       0       0       0       0       0       0       0       0
       0       0       0       0       0       0       0       0       0       0
       0       0       0       0       0       0       0       0       0       0
       0       0       0       0       0       0       0       0       0       0
       0       0       0       0       0       0       0       0       0       0
       0       0       0       0       0       0       0       0       0       0
       0       0       0       0       0       0       0       0       0       0
       0       0       0       0       0       0       0       0       0       0
       0       0       0       0       0       0       0       0       0       0
       0       0       0       0       0       0       0       0       0       0
       0       0       0       0       0       0       0       0       0       0
       0       0       0       0       0       0       0       0       0       0
       0       0       0       0       0       0       0       0       0       0
       0       0       0       0       0       0       0       0       0       0
       0       0       0       0       0       0       0       0       0       0
       0       0       0       0       0       0       0       0       0       0
       0       0       0       0       0       0       0       0       0       0
       0       0       0       0       0       0       0       0       0       0
       0       0       0       0       0       0       0       0       0       0
       0       0       0       0       0       0       0       0       0       0
       0       0       0       0       0       0       0       0       0       0
       0       0       0       0       0       0       0       0       0       0
       0       0       0       0       0       0       0       0       0       0
       0       0       0       0       0       0       0       0       0       0
       0       0       0       0       0       0       0       0       0       0
       0       0       0       0       0       0       0       0       0       0
       0       0       0       0       0       0       0       0       0       0
       0       0       0       0       0       0       0       0       0       0
       0       0       0       0       0       0       0       0       0       0
       0       0       0       0       0       0       0       0       0       0
       0       0       0       0       0       0       0       0       0       0
       0       0       0       0       0       0       0       0       0       0
       0       0       0       0       0       0       0       0       0       0
       0       0       0       0       0       0       0       0       0       0
       0       0       0       0       0       0       0       0       0       0
       0       0       0       0       0       0       0       0       0       0
       0       0       0       0       0       0       0       0       0       0
       0       0       0       0       0       0       0       0       0       0
       0       0       0       0       0       0       0       0       0       0
       0       0       0       0       0       0       0       0       0       0
       0       0       0       0       0       0       0       0       0       0
       0       0       0       0       0       0       0       0       0       0
       0       0       0       0       0       0       0       0       0       0
       0       0       0       0       0       0       0       0       0       0
       0       0       0       0       0       0       0       0       0       0
       0       0       0       0       0       0       0       0       0       0
       0       0       0       0       0       0       0       0       0       0
       0       0       0       0       0       0       0       0       0       0
       0       0       0       0       0       0       0       0       0       0
       0       0       0       0       0       0       0       0       0       0
       0       0       0       0       0       0       0       0       0       0
       0       0       0       0       0       0       0       0       0       0
       0       0       0       0       0       0       0       0       0       0
       0       0       0       0       0       0       0       0       0       0
       0       0       0       0       0       0       0       0       0       0
       0       0       0       0       0       0       0       0       0       0
       0       0       0       0       0       0       0       0       0       0
       0       0       0       0       0       0       0       0       0       0
       0       0       0       0       0       0       0       0       0       0
       0       0       0       0       0       0       0       0       0       0
       0       0       0       0       0       0       0       0       0       0
       0       0       0       0       0       0       0       0       0       0
       0       0       0       0       0       0       0       0       0       0
       0       0       0       0       0       0       0       0       0       0
       0       0       0       0       0       0       0       0       0       0
       0       0       0       0       0       0       0       0       0       0
       0       0       0       0       0       0       0       0       0       0
       0       0       0       0       0       0       0       0       0       0
       0       0       0       0       0       0       0       0       0       0
       0       0       0       0       0       0       0       0       0       0
       0       0       0       0       0       0       0       0       0       0
       0       0       0       0       0       0       0       0       0       0
       0       0       0       0       0       0       0       0       0       0
       0       0       0       0       0       0       0       0       0       0
       0       0       0       0       0       0       0       0       0       0
       0       0       0       0       0       0       0       0       0       0
       0       0       0       0       0       0       0       0       0       0
       0       0       0       0       0       0       0       0       0       0
       0       0       0       0       0       0       0       0       0       0
       0       0       0       0       0       0       0       0       0       0
       0       0       0       0       0       0       0       0       0       0
       0       0       0       0       0       0       0       0       0       0
       0       0       0       0       0       0       0       0       0       0
       0       0       0       0       0       0       0       0       0       0
       0       0       0       0       0       0       0       0       0       0
       0       0       0       0       0       0       0       0       0       0
       0       0       0       0       0       0       0       0       0       0
       0       0       0       0       0       0       0       0       0       0
       0       0       0       0       0       0       0       0       0       0
       0       0       0       0       0       0       0       0       0       0
       0       0       0       0       0       0       0       0       0       0
       0       0       0       0       0       0       0       0       0       0
       0       0       0       0       0       0       0       0       0       0
       0       0       0       0       0       0       0       0       0       0
       0       0       0       0       0       0       0       0       0       0
       0       0       0       0       0       0       0       0       0       0
       0       0       0       0       0       0       0       0       0       0
       0       0       0       0       0       0       0       0       0       0
       0       0       0       0       0       0       0       0       0       0
       0       0       0       0       0       0       0       0       0       0
       0       0       0       0       0       0       0       0       0       0
       0       0       0       0       0       0       0       0       0       0
       0       0       0       0       0       0       0       0       0       0
       0       0       0       0       0       0       0       0       0       0
       0       0       0       0       0       0       0       0       0       0
       0       0       0       0       0       0       0       0       0       0
       0       0       0       0       0       0       0       0       0       0
       0       0       0       0       0       0       0       0       0       0
       0       0       0       0       0       0       0       0       0       0
       0       0       0       0       0       0       0       0       0       0
       0       0       0       0       0       0       0       0       0       0
       0       0       0       0       0       0       0       0       0       0
       0       0       0       0       0       0       0       0       0       0
       0       0       0       0       0       0       0       0       0       0
       0       0       0       0       0       0       0       0       0       0
       0       0       0       0       0       0       0       0       0       0
       0       0       0       0       0       0       0       0       0       0
       0       0       0       0       0       0       0       0       0       0
       0       0       0       0       0       0       0       0       0       0
       0       0       0       0       0       0       0       0       0       0
       0       0       0       0       0       0       0       0       0       0
       0       0       0       0       0       0       0       0       0       0
       0       0       0       0       0       0       0       0       0       0
       0       0       0       0       0       0       0       0       0       0
       0       0       0       0       0       0       0       0       0       0
       0       0       0       0       0       0       0       0       0       0
       0       0       0       0       0       0       0       0       0       0
       0       0       0       0       0       0       0       0       0       0
       0       0       0       0       0       0       0       0       0       0
       0       0       0       0       0       0       0       0       0       0
       0       0       0       0       0       0       0       0       0       0
       0       0       0       0       0       0       0       0       0       0
       0       0       0       0       0       0       0       0       0       0
       0       0       0       0       0       0       0       0       0       0
       0       0       0       0       0       0       0       0       0       0
       0       0       0       0       0       0       0       0       0       0
       0       0       0       0       0       0       0       0       0       0
       0       0       0       0       0       0       0       0       0       0
       0       0       0       0       0       0       0       0       0       0
       0       0       0       0       0       0       0       0       0       0
       0       0       0       0       0       0       0       0       0       0
       0       0       0       0       0       0       0       0       0       0
       0       0       0       0       0       0       0       0       0       0
       0       0       0       0       0       0       0       0       0       0
       0       0       0       0       0       0       0       0       0       0
       0       0       0       0       0       0       0       0       0       0
       0       0       0       0       0       0       0       0       0       0
       0       0       0       0       0       0       0       0       0       0
       0       0       0       0       0       0       0       0       0       0
       0       0       0       0       0       0       0       0       0       0
       0       0       0       0       0       0       0       0       0       0
       0       0       0       0       0       0       0       0       0       0
       0       0       0       0       0       0       0       0       0       0
       0       0       0       0       0       0       0       0       0       0
       0       0       0       0       0       0       0       0       0       0
       0       0       0       0       0       0       0       0       0       0
       0       0       0       0       0       0       0       0       0       0
       0       0       0       0       0       0       0       0       0       0
       0       0       0       0       0       0       0       0       0       0
       0       0       0       0       0       0       0       0       0       0
       0       0       0       0       0       0       0       0       0       0
       0       0       0       0       0       0       0       0       0       0
       0       0       0       0       0       0       0       0       0       0
       0       0       0       0       0       0       0       0       0       0
       0       0       0       0       0       0       0       0       0       0
       0       0       0       0       0       0       0       0       0       0
       0       0       0       0       0       0       0       0       0       0
       0       0       0       0       0       0       0       0       0       0
       0       0       0       0       0       0       0       0       0       0
       0       0       0       0       0       0       0       0       0       0
       0       0       0       0       0       0       0       0       0       0
       0       0       0       0       0       0       0       0       0       0
       0       0       0       0       0       0       0       0       0       0
       0       0       0       0       0       0       0       0       0       0
       0       0       0       0       0       0       0       0       0       0
       0       0       0       0       0       0       0       0       0       0
       0       0       0       0       0       0       0       0       0       0
       0       0       0       0       0       0       0       0       0       0
       0       0       0       0       0       0       0       0       0       0
       0       0       0       0       0       0       0       0       0       0
       0       0       0       0       0       0       0       0       0       0
       0       0       0       0       0       0       0       0       0       0
       0       0       0       0       0       0       0       0       0       0
       0       0       0       0       0       0       0       0       0       0
       0       0       0       0       0       0       0       0       0       0
       0       0       0       0       0       0       0       0       0       0
       0       0       0       0       0       0       0       0       0       0
       0       0       0       0       0       0       0       0       0       0
       0       0       0       0       0       0       0       0       0       0
       0       0       0       0       0       0       0       0       0       0
       0       0       0       0       0       0       0       0       0       0
       0       0       0       0       0       0       0       0       0       0
       0       0       0       0       0       0       0       0       0       0
       0       0       0       0       0       0       0       0       0       0
       0       0       0       0       0       0       0       0       0       0
       0       0       0       0       0       0       0       0       0       0
       0       0       0       0       0       0       0       0       0       0
       0       0       0       0       0       0       0       0       0       0
       0       0       0       0       0       0       0       0       0       0
       0       0       0       0       0       0       0       0       0       0
       0       0       0       0       0       0       0       0       0       0
       0       0       0       0       0       0       0       0       0       0
       0       0       0       0       0       0       0       0       0       0
       0       0       0       0       0       0       0       0       0       0
       0       0       0       0       0       0       0       0       0       0
       0       0       0       0       0       0       0       0       0       0
       0       0       0       0       0       0       0       0       0       0
       0       0       0       0       0       0       0       0       0       0
       0       0       0       0       0       0       0       0       0       0
       0       0       0       0       0       0       0       0       0       0
       0       0       0       0       0       0       0       0       0       0
       0       0       0       0       0       0       0       0       0       0
       0       0       0       0       0       0       0       0       0       0
       0       0       0       0       0       0       0       0       0       0
       0       0       0       0       0       0       0       0       0       0
       0       0       0       0       0       0       0       0       0       0
       0       0       0       0       0       0       0       0       0       0
       0       0       0       0       0       0       0       0       0       0
       0       0       0       0       0       0       0       0       0       0
       0       0       0       0       0       0       0       0       0       0
       0       0       0       0       0       0       0       0       0       0
       0       0       0       0       0       0       0       0       0       0
       0       0       0       0       0       0       0       0       0       0
       0       0       0       0       0       0       0       0       0       0
       0       0       0       0       0       0       0       0       0       0
       0       0       0       0       0       0       0       0       0       0
       0       0       0       0       0       0       0       0       0       0
       0       0       0       0       0       0       0       0       0       0
       0       0       0       0       0       0       0       0       0       0
       0       0       0       0       0       0       0       0       0       0
       0       0       0       0       0       0       0       0       0       0
       0       0       0       0       0       0       0       0       0       0
       0       0       0       0       0       0       0       0       0       0
       0       0       0       0       0       0       0       0       0       0
       0       0       0       0       0       0       0       0       0       0
       0       0       0       0       0       0       0       0       0       0
       0       0       0       0       0       0       0       0       0       0
       0       0       0       0       0       0       0       0       0       0
       0       0       0       0       0       0       0       0       0       0
       0       0       0       0       0       0       0       0       0       0
       0       0       0       0       0       0       0       0       0       0
       0       0       0       0       0       0       0       0       0       0
       0       0       0       0       0       0       0       0       0       0
       0       0       0       0       0       0       0       0       0       0
       0       0       0       0       0       0       0       0       0       0
       0       0       0       0       0       0       0       0       0       0
       0       0       0       0       0       0       0       0       0       0
       0       0       0       0       0       0       0       0       0       0
       0       0       0       0       0       0       0       0       0       0
       0       0       0       0       0       0       0       0       0       0
       0       0       0       0       0       0       0       0       0       0
       0       0       0       0       0       0       0       0       0       0
       0       0       0       0       0       0       0       0       0       0
       0       0       0       0       0       0       0       0       0       0
       0       0       0       0       0       0       0       0       0       0
       0       0       0       0       0       0       0       0       0       0
       0       0       0       0       0       0       0       0       0       0
       0       0       0       0       0       0       0       0       0       0
       0       0       0       0       0
%FLAG SOLVENT_POINTERS                                                          
%FORMAT(3I8)                                                                    
       3    1219       2
%FLAG ATOMS_PER_MOLECULE                                                        
%FORMAT(10I8)                                                                   
      33       4       4       4       4       4       4       4       4       4
       4       4       4       4       4       4       4       4       4       4
       4       4       4       4       4       4       4       4       4       4
       4       4       4       4       4       4       4       4       4       4
       4       4       4       4       4       4       4       4       4       4
       4       4       4       4       4       4       4       4       4       4
       4       4       4       4       4       4       4       4       4       4
       4       4       4       4       4       4       4       4       4       4
       4       4       4       4       4       4       4       4       4       4
       4       4       4       4       4       4       4       4       4       4
       4       4       4       4       4       4       4       4       4       4
       4       4       4       4       4       4       4       4       4       4
       4       4       4       4       4       4       4       4       4       4
       4       4       4       4       4       4       4       4       4       4
       4       4       4       4       4       4       4       4       4       4
       4       4       4       4       4       4       4       4       4       4
       4       4       4       4       4       4       4       4       4       4
       4       4       4       4       4       4       4       4       4       4
       4       4       4       4       4       4       4       4       4       4
       4       4       4       4       4       4       4       4       4       4
       4       4       4       4       4       4       4       4       4       4
       4       4       4       4       4       4       4       4       4       4
       4       4       4       4       4       4       4       4       4       4
       4       4       4       4       4       4       4       4       4       4
       4       4       4       4       4       4       4       4       4       4
       4       4       4       4       4       4       4       4       4       4
       4       4       4       4       4       4       4       4       4       4
       4       4       4       4       4       4       4       4       4       4
       4       4       4       4       4       4       4       4       4       4
       4       4       4       4       4       4       4       4       4       4
       4       4       4       4       4       4       4       4       4       4
       4       4       4       4       4       4       4       4       4       4
       4       4       4       4       4       4       4       4       4       4
       4       4       4       4       4       4       4       4       4       4
       4       4       4       4       4       4       4       4       4       4
       4       4       4       4       4       4       4       4       4       4
       4       4       4       4       4       4       4       4       4       4
       4       4       4       4       4       4       4       4       4       4
       4       4       4       4       4       4       4       4       4       4
       4       4       4       4       4       4       4       4       4       4
       4       4       4       4       4       4       4       4       4       4
       4       4       4       4       4       4       4       4       4       4
       4       4       4       4       4       4       4       4       4       4
       4       4       4       4       4       4       4       4       4       4
       4       4       4       4       4       4       4       4       4       4
       4       4       4       4       4       4       4       4       4       4
       4       4       4       4       4       4       4       4       4       4
       4       4       4       4       4       4       4       4       4       4
       4       4       4       4       4       4       4       4       4       4
       4       4       4       4       4       4       4       4       4       4
       4       4       4       4       4       4       4       4       4       4
       4       4       4       4       4       4       4       4       4       4
       4       4       4       4       4       4       4       4       4       4
       4       4       4       4       4       4       4       4       4       4
       4       4       4       4       4       4       4       4       4       4
       4       4       4       4       4       4       4       4       4       4
       4       4       4       4       4       4       4       4       4       4
       4       4       4       4       4       4       4       4       4       4
       4       4       4       4       4       4       4       4       4       4
       4       4       4       4       4       4       4       4       4       4
       4       4       4       4       4       4       4       4       4       4
       4       4       4       4       4       4       4       4       4       4
       4       4       4       4       4       4       4       4       4       4
       4       4       4       4       4       4       4       4       4       4
       4       4       4       4       4       4       4       4       4       4
       4       4       4       4       4       4       4       4       4       4
       4       4       4       4       4       4       4       4       4       4
       4       4       4       4       4       4       4       4       4       4
       4       4       4       4       4       4       4       4       4       4
       4       4       4       4       4       4       4       4       4       4
       4       4       4       4       4       4       4       4       4       4
       4       4       4       4       4       4       4       4       4       4
       4       4       4       4       4       4       4       4       4       4
       4       4       4       4       4       4       4       4       4       4
       4       4       4       4       4       4       4       4       4       4
       4       4       4       4       4       4       4       4       4       4
       4       4       4       4       4       4       4       4       4       4
       4       4       4       4       4       4       4       4       4       4
       4       4       4       4       4       4       4       4       4       4
       4       4       4       4       4       4       4       4       4       4
       4       4       4       4       4       4       4       4       4       4
       4       4       4       4       4       4       4       4       4       4
       4       4       4       4       4       4       4       4       4       4
       4       4       4       4       4       4       4       4       4       4
       4       4       4       4       4       4       4       4       4       4
       4       4       4       4       4       4       4       4       4       4
       4       4       4       4       4       4       4       4       4       4
       4       4       4       4       4       4       4       4       4       4
       4       4       4       4       4       4       4       4       4       4
       4       4       4       4       4       4       4       4       4       4
       4       4       4       4       4       4       4       4       4       4
       4       4       4       4       4       4       4       4       4       4
       4       4       4       4       4       4       4       4       4       4
       4       4       4       4       4       4       4       4       4       4
       4       4       4       4       4       4       4       4       4       4
       4       4       4       4       4       4       4       4       4       4
       4       4       4       4       4       4       4       4       4       4
       4       4       4       4       4       4       4       4       4       4
       4       4       4       4       4       4       4       4       4       4
       4       4       4       4       4       4       4       4       4       4
       4       4       4       4       4       4       4       4       4       4
       4       4       4       4       4       4       4       4       4       4
       4       4       4       4       4       4       4       4       4       4
       4       4       4       4       4       4       4       4       4       4
       4       4       4       4       4       4       4       4       4       4
       4       4       4       4       4       4       4       4       4       4
       4       4       4       4       4       4       4       4       4       4
       4       4       4       4       4       4       4       4       4       4
       4       4       4       4       4       4       4       4       4       4
       4       4       4       4       4       4       4       4       4       4
       4       4       4       4       4       4       4       4       4       4
       4       4       4       4       4       4       4       4       4       4
       4       4       4       4       4       4       4       4       4       4
       4       4       4       4       4       4       4       4       4       4
       4       4       4       4       4       4       4       4       4       4
       4       4       4       4       4       4       4       4       4       4
       4       4       4       4       4       4       4       4       4       4
       4       4       4       4       4       4       4       4       4       4
       4       4       4       4       4       4       4       4       4       4
       4       4       4       4       4       4       4       4       4       4
       4       4       4       4       4       4       4       4       4       4
       4       4       4       4       4       4       4       4       4
%FLAG BOX_DIMENSIONS                                                            
%FORMAT(5E16.8)                                                                 
  9.00000000E+01  3.75211785E+01  3.73354425E+01  3.75715755E+01
%FLAG RADIUS_SET                                                                
%FORMAT(1a80)                                                                   
modified Bondi radii (mbondi)                                                   
%FLAG RADII                                                                     
%FORMAT(5E16.8)                                                                 
  1.55000000E+00  1.30000000E+00  1.30000000E+00  1.30000000E+00  1.70000000E+00
  1.30000000E+00  1.70000000E+00  1.30000000E+00  1.30000000E+00  1.30000000E+00
  1.70000000E+00  1.50000000E+00  1.55000000E+00  1.30000000E+00  1.70000000E+00
  1.30000000E+00  1.70000000E+00  1.30000000E+00  1.30000000E+00  1.30000000E+00
  1.70000000E+00  1.50000000E+00  1.55000000E+00  1.30000000E+00  1.70000000E+00
  1.30000000E+00  1.70000000E+00  1.30000000E+00  1.30000000E+00  1.30000000E+00
  1.70000000E+00  1.50000000E+00  1.50000000E+00  1.50000000E+00  8.00000000E-01
  8.00000000E-01  1.50000000E+00  1.50000000E+00  8.00000000E-01  8.00000000E-01
  1.50000000E+00  1.50000000E+00  8.00000000E-01  8.00000000E-01  1.50000000E+00
  1.50000000E+00  8.00000000E-01  8.00000000E-01  1.50000000E+00  1.50000000E+00
  8.00000000E-01  8.00000000E-01  1.50000000E+00  1.50000000E+00  8.00000000E-01
  8.00000000E-01  1.50000000E+00  1.50000000E+00  8.00000000E-01  8.00000000E-01
  1.50000000E+00  1.50000000E+00  8.00000000E-01  8.00000000E-01  1.50000000E+00
  1.50000000E+00  8.00000000E-01  8.00000000E-01  1.50000000E+00  1.50000000E+00
  8.00000000E-01  8.00000000E-01  1.50000000E+00  1.50000000E+00  8.00000000E-01
  8.00000000E-01  1.50000000E+00  1.50000000E+00  8.00000000E-01  8.00000000E-01
  1.50000000E+00  1.50000000E+00  8.00000000E-01  8.00000000E-01  1.50000000E+00
  1.50000000E+00  8.00000000E-01  8.00000000E-01  1.50000000E+00  1.50000000E+00
  8.00000000E-01  8.00000000E-01  1.50000000E+00  1.50000000E+00  8.00000000E-01
  8.00000000E-01  1.50000000E+00  1.50000000E+00  8.00000000E-01  8.00000000E-01
  1.50000000E+00  1.50000000E+00  8.00000000E-01  8.00000000E-01  1.50000000E+00
  1.50000000E+00  8.00000000E-01  8.00000000E-01  1.50000000E+00  1.50000000E+00
  8.00000000E-01  8.00000000E-01  1.50000000E+00  1.50000000E+00  8.00000000E-01
  8.00000000E-01  1.50000000E+00  1.50000000E+00  8.00000000E-01  8.00000000E-01
  1.50000000E+00  1.50000000E+00  8.00000000E-01  8.00000000E-01  1.50000000E+00
  1.50000000E+00  8.00000000E-01  8.00000000E-01  1.50000000E+00  1.50000000E+00
  8.00000000E-01  8.00000000E-01  1.50000000E+00  1.50000000E+00  8.00000000E-01
  8.00000000E-01  1.50000000E+00  1.50000000E+00  8.00000000E-01  8.00000000E-01
  1.50000000E+00  1.50000000E+00  8.00000000E-01  8.00000000E-01  1.50000000E+00
  1.50000000E+00  8.00000000E-01  8.00000000E-01  1.50000000E+00  1.50000000E+00
  8.00000000E-01  8.00000000E-01  1.50000000E+00  1.50000000E+00  8.00000000E-01
  8.00000000E-01  1.50000000E+00  1.50000000E+00  8.00000000E-01  8.00000000E-01
  1.50000000E+00  1.50000000E+00  8.00000000E-01  8.00000000E-01  1.50000000E+00
  1.50000000E+00  8.00000000E-01  8.00000000E-01  1.50000000E+00  1.50000000E+00
  8.00000000E-01  8.00000000E-01  1.50000000E+00  1.50000000E+00  8.00000000E-01
  8.00000000E-01  1.50000000E+00  1.50000000E+00  8.00000000E-01  8.00000000E-01
  1.50000000E+00  1.50000000E+00  8.00000000E-01  8.00000000E-01  1.50000000E+00
  1.50000000E+00  8.00000000E-01  8.00000000E-01  1.50000000E+00  1.50000000E+00
  8.00000000E-01  8.00000000E-01  1.50000000E+00  1.50000000E+00  8.00000000E-01
  8.00000000E-01  1.50000000E+00  1.50000000E+00  8.00000000E-01  8.00000000E-01
  1.50000000E+00  1.50000000E+00  8.00000000E-01  8.00000000E-01  1.50000000E+00
  1.50000000E+00  8.00000000E-01  8.00000000E-01  1.50000000E+00  1.50000000E+00
  8.00000000E-01  8.00000000E-01  1.50000000E+00  1.50000000E+00  8.00000000E-01
  8.00000000E-01  1.50000000E+00  1.50000000E+00  8.00000000E-01  8.00000000E-01
  1.50000000E+00  1.50000000E+00  8.00000000E-01  8.00000000E-01  1.50000000E+00
  1.50000000E+00  8.00000000E-01  8.00000000E-01  1.50000000E+00  1.50000000E+00
  8.00000000E-01  8.00000000E-01  1.50000000E+00  1.50000000E+00  8.00000000E-01
  8.00000000E-01  1.50000000E+00  1.50000000E+00  8.00000000E-01  8.00000000E-01
  1.50000000E+00  1.50000000E+00  8.00000000E-01  8.00000000E-01  1.50000000E+00
  1.50000000E+00  8.00000000E-01  8.00000000E-01  1.50000000E+00  1.50000000E+00
  8.00000000E-01  8.00000000E-01  1.50000000E+00  1.50000000E+00  8.00000000E-01
  8.00000000E-01  1.50000000E+00  1.50000000E+00  8.00000000E-01  8.00000000E-01
  1.50000000E+00  1.50000000E+00  8.00000000E-01  8.00000000E-01  1.50000000E+00
  1.50000000E+00  8.00000000E-01  8.00000000E-01  1.50000000E+00  1.50000000E+00
  8.00000000E-01  8.00000000E-01  1.50000000E+00  1.50000000E+00  8.00000000E-01
  8.00000000E-01  1.50000000E+00  1.50000000E+00  8.00000000E-01  8.00000000E-01
  1.50000000E+00  1.50000000E+00  8.00000000E-01  8.00000000E-01  1.50000000E+00
  1.50000000E+00  8.00000000E-01  8.00000000E-01  1.50000000E+00  1.50000000E+00
  8.00000000E-01  8.00000000E-01  1.50000000E+00  1.50000000E+00  8.00000000E-01
  8.00000000E-01  1.50000000E+00  1.50000000E+00  8.00000000E-01  8.00000000E-01
  1.50000000E+00  1.50000000E+00  8.00000000E-01  8.00000000E-01  1.50000000E+00
  1.50000000E+00  8.00000000E-01  8.00000000E-01  1.50000000E+00  1.50000000E+00
  8.00000000E-01  8.00000000E-01  1.50000000E+00  1.50000000E+00  8.00000000E-01
  8.00000000E-01  1.50000000E+00  1.50000000E+00  8.00000000E-01  8.00000000E-01
  1.50000000E+00  1.50000000E+00  8.00000000E-01  8.00000000E-01  1.50000000E+00
  1.50000000E+00  8.00000000E-01  8.00000000E-01  1.50000000E+00  1.50000000E+00
  8.00000000E-01  8.00000000E-01  1.50000000E+00  1.50000000E+00  8.00000000E-01
  8.00000000E-01  1.50000000E+00  1.50000000E+00  8.00000000E-01  8.00000000E-01
  1.50000000E+00  1.50000000E+00  8.00000000E-01  8.00000000E-01  1.50000000E+00
  1.50000000E+00  8.00000000E-01  8.00000000E-01  1.50000000E+00  1.50000000E+00
  8.00000000E-01  8.00000000E-01  1.50000000E+00  1.50000000E+00  8.00000000E-01
  8.00000000E-01  1.50000000E+00  1.50000000E+00  8.00000000E-01  8.00000000E-01
  1.50000000E+00  1.50000000E+00  8.00000000E-01  8.00000000E-01  1.50000000E+00
  1.50000000E+00  8.00000000E-01  8.00000000E-01  1.50000000E+00  1.50000000E+00
  8.00000000E-01  8.00000000E-01  1.50000000E+00  1.50000000E+00  8.00000000E-01
  8.00000000E-01  1.50000000E+00  1.50000000E+00  8.00000000E-01  8.00000000E-01
  1.50000000E+00  1.50000000E+00  8.00000000E-01  8.00000000E-01  1.50000000E+00
  1.50000000E+00  8.00000000E-01  8.00000000E-01  1.50000000E+00  1.50000000E+00
  8.00000000E-01  8.00000000E-01  1.50000000E+00  1.50000000E+00  8.00000000E-01
  8.00000000E-01  1.50000000E+00  1.50000000E+00  8.00000000E-01  8.00000000E-01
  1.50000000E+00  1.50000000E+00  8.00000000E-01  8.00000000E-01  1.50000000E+00
  1.50000000E+00  8.00000000E-01  8.00000000E-01  1.50000000E+00  1.50000000E+00
  8.00000000E-01  8.00000000E-01  1.50000000E+00  1.50000000E+00  8.00000000E-01
  8.00000000E-01  1.50000000E+00  1.50000000E+00  8.00000000E-01  8.00000000E-01
  1.50000000E+00  1.50000000E+00  8.00000000E-01  8.00000000E-01  1.50000000E+00
  1.50000000E+00  8.00000000E-01  8.00000000E-01  1.50000000E+00  1.50000000E+00
  8.00000000E-01  8.00000000E-01  1.50000000E+00  1.50000000E+00  8.00000000E-01
  8.00000000E-01  1.50000000E+00  1.50000000E+00  8.00000000E-01  8.00000000E-01
  1.50000000E+00  1.50000000E+00  8.00000000E-01  8.00000000E-01  1.50000000E+00
  1.50000000E+00  8.00000000E-01  8.00000000E-01  1.50000000E+00  1.50000000E+00
  8.00000000E-01  8.00000000E-01  1.50000000E+00  1.50000000E+00  8.00000000E-01
  8.00000000E-01  1.50000000E+00  1.50000000E+00  8.00000000E-01  8.00000000E-01
  1.50000000E+00  1.50000000E+00  8.00000000E-01  8.00000000E-01  1.50000000E+00
  1.50000000E+00  8.00000000E-01  8.00000000E-01  1.50000000E+00  1.50000000E+00
  8.00000000E-01  8.00000000E-01  1.50000000E+00  1.50000000E+00  8.00000000E-01
  8.00000000E-01  1.50000000E+00  1.50000000E+00  8.00000000E-01  8.00000000E-01
  1.50000000E+00  1.50000000E+00  8.00000000E-01  8.00000000E-01  1.50000000E+00
  1.50000000E+00  8.00000000E-01  8.00000000E-01  1.50000000E+00  1.50000000E+00
  8.00000000E-01  8.00000000E-01  1.50000000E+00  1.50000000E+00  8.00000000E-01
  8.00000000E-01  1.50000000E+00  1.50000000E+00  8.00000000E-01  8.00000000E-01
  1.50000000E+00  1.50000000E+00  8.00000000E-01  8.00000000E-01  1.50000000E+00
  1.50000000E+00  8.00000000E-01  8.00000000E-01  1.50000000E+00  1.50000000E+00
  8.00000000E-01  8.00000000E-01  1.50000000E+00  1.50000000E+00  8.00000000E-01
  8.00000000E-01  1.50000000E+00  1.50000000E+00  8.00000000E-01  8.00000000E-01
  1.50000000E+00  1.50000000E+00  8.00000000E-01  8.00000000E-01  1.50000000E+00
  1.50000000E+00  8.00000000E-01  8.00000000E-01  1.50000000E+00  1.50000000E+00
  8.00000000E-01  8.00000000E-01  1.50000000E+00  1.50000000E+00  8.00000000E-01
  8.00000000E-01  1.50000000E+00  1.50000000E+00  8.00000000E-01  8.00000000E-01
  1.50000000E+00  1.50000000E+00  8.00000000E-01  8.00000000E-01  1.50000000E+00
  1.50000000E+00  8.00000000E-01  8.00000000E-01  1.50000000E+00  1.50000000E+00
  8.00000000E-01  8.00000000E-01  1.50000000E+00  1.50000000E+00  8.00000000E-01
  8.00000000E-01  1.50000000E+00  1.50000000E+00  8.00000000E-01  8.00000000E-01
  1.50000000E+00  1.50000000E+00  8.00000000E-01  8.00000000E-01  1.50000000E+00
  1.50000000E+00  8.00000000E-01  8.00000000E-01  1.50000000E+00  1.50000000E+00
  8.00000000E-01  8.00000000E-01  1.50000000E+00  1.50000000E+00  8.00000000E-01
  8.00000000E-01  1.50000000E+00  1.50000000E+00  8.00000000E-01  8.00000000E-01
  1.50000000E+00  1.50000000E+00  8.00000000E-01  8.00000000E-01  1.50000000E+00
  1.50000000E+00  8.00000000E-01  8.00000000E-01  1.50000000E+00  1.50000000E+00
  8.00000000E-01  8.00000000E-01  1.50000000E+00  1.50000000E+00  8.00000000E-01
  8.00000000E-01  1.50000000E+00  1.50000000E+00  8.00000000E-01  8.00000000E-01
  1.50000000E+00  1.50000000E+00  8.00000000E-01  8.00000000E-01  1.50000000E+00
  1.50000000E+00  8.00000000E-01  8.00000000E-01  1.50000000E+00  1.50000000E+00
  8.00000000E-01  8.00000000E-01  1.50000000E+00  1.50000000E+00  8.00000000E-01
  8.00000000E-01  1.50000000E+00  1.50000000E+00  8.00000000E-01  8.00000000E-01
  1.50000000E+00  1.50000000E+00  8.00000000E-01  8.00000000E-01  1.50000000E+00
  1.50000000E+00  8.00000000E-01  8.00000000E-01  1.50000000E+00  1.50000000E+00
  8.00000000E-01  8.00000000E-01  1.50000000E+00  1.50000000E+00  8.00000000E-01
  8.00000000E-01  1.50000000E+00  1.50000000E+00  8.00000000E-01  8.00000000E-01
  1.50000000E+00  1.50000000E+00  8.00000000E-01  8.00000000E-01  1.50000000E+00
  1.50000000E+00  8.00000000E-01  8.00000000E-01  1.50000000E+00  1.50000000E+00
  8.00000000E-01  8.00000000E-01  1.50000000E+00  1.50000000E+00  8.00000000E-01
  8.00000000E-01  1.50000000E+00  1.50000000E+00  8.00000000E-01  8.00000000E-01
  1.50000000E+00  1.50000000E+00  8.00000000E-01  8.00000000E-01  1.50000000E+00
  1.50000000E+00  8.00000000E-01  8.00000000E-01  1.50000000E+00  1.50000000E+00
  8.00000000E-01  8.00000000E-01  1.50000000E+00  1.50000000E+00  8.00000000E-01
  8.00000000E-01  1.50000000E+00  1.50000000E+00  8.00000000E-01  8.00000000E-01
  1.50000000E+00  1.50000000E+00  8.00000000E-01  8.00000000E-01  1.50000000E+00
  1.50000000E+00  8.00000000E-01  8.00000000E-01  1.50000000E+00  1.50000000E+00
  8.00000000E-01  8.00000000E-01  1.50000000E+00  1.50000000E+00  8.00000000E-01
  8.00000000E-01  1.50000000E+00  1.50000000E+00  8.00000000E-01  8.00000000E-01
  1.50000000E+00  1.50000000E+00  8.00000000E-01  8.00000000E-01  1.50000000E+00
  1.50000000E+00  8.00000000E-01  8.00000000E-01  1.50000000E+00  1.50000000E+00
  8.00000000E-01  8.00000000E-01  1.50000000E+00  1.50000000E+00  8.00000000E-01
  8.00000000E-01  1.50000000E+00  1.50000000E+00  8.00000000E-01  8.00000000E-01
  1.50000000E+00  1.50000000E+00  8.00000000E-01  8.00000000E-01  1.50000000E+00
  1.50000000E+00  8.00000000E-01  8.00000000E-01  1.50000000E+00  1.50000000E+00
  8.00000000E-01  8.00000000E-01  1.50000000E+00  1.50000000E+00  8.00000000E-01
  8.00000000E-01  1.50000000E+00  1.50000000E+00  8.00000000E-01  8.00000000E-01
  1.50000000E+00  1.50000000E+00  8.00000000E-01  8.00000000E-01  1.50000000E+00
  1.50000000E+00  8.00000000E-01  8.00000000E-01  1.50000000E+00  1.50000000E+00
  8.00000000E-01  8.00000000E-01  1.50000000E+00  1.50000000E+00  8.00000000E-01
  8.00000000E-01  1.50000000E+00  1.50000000E+00  8.00000000E-01  8.00000000E-01
  1.50000000E+00  1.50000000E+00  8.00000000E-01  8.00000000E-01  1.50000000E+00
  1.50000000E+00  8.00000000E-01  8.00000000E-01  1.50000000E+00  1.50000000E+00
  8.00000000E-01  8.00000000E-01  1.50000000E+00  1.50000000E+00  8.00000000E-01
  8.00000000E-01  1.50000000E+00  1.50000000E+00  8.00000000E-01  8.00000000E-01
  1.50000000E+00  1.50000000E+00  8.00000000E-01  8.00000000E-01  1.50000000E+00
  1.50000000E+00  8.00000000E-01  8.00000000E-01  1.50000000E+00  1.50000000E+00
  8.00000000E-01  8.00000000E-01  1.50000000E+00  1.50000000E+00  8.00000000E-01
  8.00000000E-01  1.50000000E+00  1.50000000E+00  8.00000000E-01  8.00000000E-01
  1.50000000E+00  1.50000000E+00  8.00000000E-01  8.00000000E-01  1.50000000E+00
  1.50000000E+00  8.00000000E-01  8.00000000E-01  1.50000000E+00  1.50000000E+00
  8.00000000E-01  8.00000000E-01  1.50000000E+00  1.50000000E+00  8.00000000E-01
  8.00000000E-01  1.50000000E+00  1.50000000E+00  8.00000000E-01  8.00000000E-01
  1.50000000E+00  1.50000000E+00  8.00000000E-01  8.00000000E-01  1.50000000E+00
  1.50000000E+00  8.00000000E-01  8.00000000E-01  1.50000000E+00  1.50000000E+00
  8.00000000E-01  8.00000000E-01  1.50000000E+00  1.50000000E+00  8.00000000E-01
  8.00000000E-01  1.50000000E+00  1.50000000E+00  8.00000000E-01  8.00000000E-01
  1.50000000E+00  1.50000000E+00  8.00000000E-01  8.00000000E-01  1.50000000E+00
  1.50000000E+00  8.00000000E-01  8.00000000E-01  1.50000000E+00  1.50000000E+00
  8.00000000E-01  8.00000000E-01  1.50000000E+00  1.50000000E+00  8.00000000E-01
  8.00000000E-01  1.50000000E+00  1.50000000E+00  8.00000000E-01  8.00000000E-01
  1.50000000E+00  1.50000000E+00  8.00000000E-01  8.00000000E-01  1.50000000E+00
  1.50000000E+00  8.00000000E-01  8.00000000E-01  1.50000000E+00  1.50000000E+00
  8.00000000E-01  8.00000000E-01  1.50000000E+00  1.50000000E+00  8.00000000E-01
  8.00000000E-01  1.50000000E+00  1.50000000E+00  8.00000000E-01  8.00000000E-01
  1.50000000E+00  1.50000000E+00  8.00000000E-01  8.00000000E-01  1.50000000E+00
  1.50000000E+00  8.00000000E-01  8.00000000E-01  1.50000000E+00  1.50000000E+00
  8.00000000E-01  8.00000000E-01  1.50000000E+00  1.50000000E+00  8.00000000E-01
  8.00000000E-01  1.50000000E+00  1.50000000E+00  8.00000000E-01  8.00000000E-01
  1.50000000E+00  1.50000000E+00  8.00000000E-01  8.00000000E-01  1.50000000E+00
  1.50000000E+00  8.00000000E-01  8.00000000E-01  1.50000000E+00  1.50000000E+00
  8.00000000E-01  8.00000000E-01  1.50000000E+00  1.50000000E+00  8.00000000E-01
  8.00000000E-01  1.50000000E+00  1.50000000E+00  8.00000000E-01  8.00000000E-01
  1.50000000E+00  1.50000000E+00  8.00000000E-01  8.00000000E-01  1.50000000E+00
  1.50000000E+00  8.00000000E-01  8.00000000E-01  1.50000000E+00  1.50000000E+00
  8.00000000E-01  8.00000000E-01  1.50000000E+00  1.50000000E+00  8.00000000E-01
  8.00000000E-01  1.50000000E+00  1.50000000E+00  8.00000000E-01  8.00000000E-01
  1.50000000E+00  1.50000000E+00  8.00000000E-01  8.00000000E-01  1.50000000E+00
  1.50000000E+00  8.00000000E-01  8.00000000E-01  1.50000000E+00  1.50000000E+00
  8.00000000E-01  8.00000000E-01  1.50000000E+00  1.50000000E+00  8.00000000E-01
  8.00000000E-01  1.50000000E+00  1.50000000E+00  8.00000000E-01  8.00000000E-01
  1.50000000E+00  1.50000000E+00  8.00000000E-01  8.00000000E-01  1.50000000E+00
  1.50000000E+00  8.00000000E-01  8.00000000E-01  1.50000000E+00  1.50000000E+00
  8.00000000E-01  8.00000000E-01  1.50000000E+00  1.50000000E+00  8.00000000E-01
  8.00000000E-01  1.50000000E+00  1.50000000E+00  8.00000000E-01  8.00000000E-01
  1.50000000E+00  1.50000000E+00  8.00000000E-01  8.00000000E-01  1.50000000E+00
  1.50000000E+00  8.00000000E-01  8.00000000E-01  1.50000000E+00  1.50000000E+00
  8.00000000E-01  8.00000000E-01  1.50000000E+00  1.50000000E+00  8.00000000E-01
  8.00000000E-01  1.50000000E+00  1.50000000E+00  8.00000000E-01  8.00000000E-01
  1.50000000E+00  1.50000000E+00  8.00000000E-01  8.00000000E-01  1.50000000E+00
  1.50000000E+00  8.00000000E-01  8.00000000E-01  1.50000000E+00  1.50000000E+00
  8.00000000E-01  8.00000000E-01  1.50000000E+00  1.50000000E+00  8.00000000E-01
  8.00000000E-01  1.50000000E+00  1.50000000E+00  8.00000000E-01  8.00000000E-01
  1.50000000E+00  1.50000000E+00  8.00000000E-01  8.00000000E-01  1.50000000E+00
  1.50000000E+00  8.00000000E-01  8.00000000E-01  1.50000000E+00  1.50000000E+00
  8.00000000E-01  8.00000000E-01  1.50000000E+00  1.50000000E+00  8.00000000E-01
  8.00000000E-01  1.50000000E+00  1.50000000E+00  8.00000000E-01  8.00000000E-01
  1.50000000E+00  1.50000000E+00  8.00000000E-01  8.00000000E-01  1.50000000E+00
  1.50000000E+00  8.00000000E-01  8.00000000E-01  1.50000000E+00  1.50000000E+00
  8.00000000E-01  8.00000000E-01  1.50000000E+00  1.50000000E+00  8.00000000E-01
  8.00000000E-01  1.50000000E+00  1.50000000E+00  8.00000000E-01  8.00000000E-01
  1.50000000E+00  1.50000000E+00  8.00000000E-01  8.00000000E-01  1.50000000E+00
  1.50000000E+00  8.00000000E-01  8.00000000E-01  1.50000000E+00  1.50000000E+00
  8.00000000E-01  8.00000000E-01  1.50000000E+00  1.50000000E+00  8.00000000E-01
  8.00000000E-01  1.50000000E+00  1.50000000E+00  8.00000000E-01  8.00000000E-01
  1.50000000E+00  1.50000000E+00  8.00000000E-01  8.00000000E-01  1.50000000E+00
  1.50000000E+00  8.00000000E-01  8.00000000E-01  1.50000000E+00  1.50000000E+00
  8.00000000E-01  8.00000000E-01  1.50000000E+00  1.50000000E+00  8.00000000E-01
  8.00000000E-01  1.50000000E+00  1.50000000E+00  8.00000000E-01  8.00000000E-01
  1.50000000E+00  1.50000000E+00  8.00000000E-01  8.00000000E-01  1.50000000E+00
  1.50000000E+00  8.00000000E-01  8.00000000E-01  1.50000000E+00  1.50000000E+00
  8.00000000E-01  8.00000000E-01  1.50000000E+00  1.50000000E+00  8.00000000E-01
  8.00000000E-01  1.50000000E+00  1.50000000E+00  8.00000000E-01  8.00000000E-01
  1.50000000E+00  1.50000000E+00  8.00000000E-01  8.00000000E-01  1.50000000E+00
  1.50000000E+00  8.00000000E-01  8.00000000E-01  1.50000000E+00  1.50000000E+00
  8.00000000E-01  8.00000000E-01  1.50000000E+00  1.50000000E+00  8.00000000E-01
  8.00000000E-01  1.50000000E+00  1.50000000E+00  8.00000000E-01  8.00000000E-01
  1.50000000E+00  1.50000000E+00  8.00000000E-01  8.00000000E-01  1.50000000E+00
  1.50000000E+00  8.00000000E-01  8.00000000E-01  1.50000000E+00  1.50000000E+00
  8.00000000E-01  8.00000000E-01  1.50000000E+00  1.50000000E+00  8.00000000E-01
  8.00000000E-01  1.50000000E+00  1.50000000E+00  8.00000000E-01  8.00000000E-01
  1.50000000E+00  1.50000000E+00  8.00000000E-01  8.00000000E-01  1.50000000E+00
  1.50000000E+00  8.00000000E-01  8.00000000E-01  1.50000000E+00  1.50000000E+00
  8.00000000E-01  8.00000000E-01  1.50000000E+00  1.50000000E+00  8.00000000E-01
  8.00000000E-01  1.50000000E+00  1.50000000E+00  8.00000000E-01  8.00000000E-01
  1.50000000E+00  1.50000000E+00  8.00000000E-01  8.00000000E-01  1.50000000E+00
  1.50000000E+00  8.00000000E-01  8.00000000E-01  1.50000000E+00  1.50000000E+00
  8.00000000E-01  8.00000000E-01  1.50000000E+00  1.50000000E+00  8.00000000E-01
  8.00000000E-01  1.50000000E+00  1.50000000E+00  8.00000000E-01  8.00000000E-01
  1.50000000E+00  1.50000000E+00  8.00000000E-01  8.00000000E-01  1.50000000E+00
  1.50000000E+00  8.00000000E-01  8.00000000E-01  1.50000000E+00  1.50000000E+00
  8.00000000E-01  8.00000000E-01  1.50000000E+00  1.50000000E+00  8.00000000E-01
  8.00000000E-01  1.50000000E+00  1.50000000E+00  8.00000000E-01  8.00000000E-01
  1.50000000E+00  1.50000000E+00  8.00000000E-01  8.00000000E-01  1.50000000E+00
  1.50000000E+00  8.00000000E-01  8.00000000E-01  1.50000000E+00  1.50000000E+00
  8.00000000E-01  8.00000000E-01  1.50000000E+00  1.50000000E+00  8.00000000E-01
  8.00000000E-01  1.50000000E+00  1.50000000E+00  8.00000000E-01  8.00000000E-01
  1.50000000E+00  1.50000000E+00  8.00000000E-01  8.00000000E-01  1.50000000E+00
  1.50000000E+00  8.00000000E-01  8.00000000E-01  1.50000000E+00  1.50000000E+00
  8.00000000E-01  8.00000000E-01  1.50000000E+00  1.50000000E+00  8.00000000E-01
  8.00000000E-01  1.50000000E+00  1.50000000E+00  8.00000000E-01  8.00000000E-01
  1.50000000E+00  1.50000000E+00  8.00000000E-01  8.00000000E-01  1.50000000E+00
  1.50000000E+00  8.00000000E-01  8.00000000E-01  1.50000000E+00  1.50000000E+00
  8.00000000E-01  8.00000000E-01  1.50000000E+00  1.50000000E+00  8.00000000E-01
  8.00000000E-01  1.50000000E+00  1.50000000E+00  8.00000000E-01  8.00000000E-01
  1.50000000E+00  1.50000000E+00  8.00000000E-01  8.00000000E-01  1.50000000E+00
  1.50000000E+00  8.00000000E-01  8.00000000E-01  1.50000000E+00  1.50000000E+00
  8.00000000E-01  8.00000000E-01  1.50000000E+00  1.50000000E+00  8.00000000E-01
  8.00000000E-01  1.50000000E+00  1.50000000E+00  8.00000000E-01  8.00000000E-01
  1.50000000E+00  1.50000000E+00  8.00000000E-01  8.00000000E-01  1.50000000E+00
  1.50000000E+00  8.00000000E-01  8.00000000E-01  1.50000000E+00  1.50000000E+00
  8.00000000E-01  8.00000000E-01  1.50000000E+00  1.50000000E+00  8.00000000E-01
  8.00000000E-01  1.50000000E+00  1.50000000E+00  8.00000000E-01  8.00000000E-01
  1.50000000E+00  1.50000000E+00  8.00000000E-01  8.00000000E-01  1.50000000E+00
  1.50000000E+00  8.00000000E-01  8.00000000E-01  1.50000000E+00  1.50000000E+00
  8.00000000E-01  8.00000000E-01  1.50000000E+00  1.50000000E+00  8.00000000E-01
  8.00000000E-01  1.50000000E+00  1.50000000E+00  8.00000000E-01  8.00000000E-01
  1.50000000E+00  1.50000000E+00  8.00000000E-01  8.00000000E-01  1.50000000E+00
  1.50000000E+00  8.00000000E-01  8.00000000E-01  1.50000000E+00  1.50000000E+00
  8.00000000E-01  8.00000000E-01  1.50000000E+00  1.50000000E+00  8.00000000E-01
  8.00000000E-01  1.50000000E+00  1.50000000E+00  8.00000000E-01  8.00000000E-01
  1.50000000E+00  1.50000000E+00  8.00000000E-01  8.00000000E-01  1.50000000E+00
  1.50000000E+00  8.00000000E-01  8.00000000E-01  1.50000000E+00  1.50000000E+00
  8.00000000E-01  8.00000000E-01  1.50000000E+00  1.50000000E+00  8.00000000E-01
  8.00000000E-01  1.50000000E+00  1.50000000E+00  8.00000000E-01  8.00000000E-01
  1.50000000E+00  1.50000000E+00  8.00000000E-01  8.00000000E-01  1.50000000E+00
  1.50000000E+00  8.00000000E-01  8.00000000E-01  1.50000000E+00  1.50000000E+00
  8.00000000E-01  8.00000000E-01  1.50000000E+00  1.50000000E+00  8.00000000E-01
  8.00000000E-01  1.50000000E+00  1.50000000E+00  8.00000000E-01  8.00000000E-01
  1.50000000E+00  1.50000000E+00  8.00000000E-01  8.00000000E-01  1.50000000E+00
  1.50000000E+00  8.00000000E-01  8.00000000E-01  1.50000000E+00  1.50000000E+00
  8.00000000E-01  8.00000000E-01  1.50000000E+00  1.50000000E+00  8.00000000E-01
  8.00000000E-01  1.50000000E+00  1.50000000E+00  8.00000000E-01  8.00000000E-01
  1.50000000E+00  1.50000000E+00  8.00000000E-01  8.00000000E-01  1.50000000E+00
  1.50000000E+00  8.00000000E-01  8.00000000E-01  1.50000000E+00  1.50000000E+00
  8.00000000E-01  8.00000000E-01  1.50000000E+00  1.50000000E+00  8.00000000E-01
  8.00000000E-01  1.50000000E+00  1.50000000E+00  8.00000000E-01  8.00000000E-01
  1.50000000E+00  1.50000000E+00  8.00000000E-01  8.00000000E-01  1.50000000E+00
  1.50000000E+00  8.00000000E-01  8.00000000E-01  1.50000000E+00  1.50000000E+00
  8.00000000E-01  8.00000000E-01  1.50000000E+00  1.50000000E+00  8.00000000E-01
  8.00000000E-01  1.50000000E+00  1.50000000E+00  8.00000000E-01  8.00000000E-01
  1.50000000E+00  1.50000000E+00  8.00000000E-01  8.00000000E-01  1.50000000E+00
  1.50000000E+00  8.00000000E-01  8.00000000E-01  1.50000000E+00  1.50000000E+00
  8.00000000E-01  8.00000000E-01  1.50000000E+00  1.50000000E+00  8.00000000E-01
  8.00000000E-01  1.50000000E+00  1.50000000E+00  8.00000000E-01  8.00000000E-01
  1.50000000E+00  1.50000000E+00  8.00000000E-01  8.00000000E-01  1.50000000E+00
  1.50000000E+00  8.00000000E-01  8.00000000E-01  1.50000000E+00  1.50000000E+00
  8.00000000E-01  8.00000000E-01  1.50000000E+00  1.50000000E+00  8.00000000E-01
  8.00000000E-01  1.50000000E+00  1.50000000E+00  8.00000000E-01  8.00000000E-01
  1.50000000E+00  1.50000000E+00  8.00000000E-01  8.00000000E-01  1.50000000E+00
  1.50000000E+00  8.00000000E-01  8.00000000E-01  1.50000000E+00  1.50000000E+00
  8.00000000E-01  8.00000000E-01  1.50000000E+00  1.50000000E+00  8.00000000E-01
  8.00000000E-01  1.50000000E+00  1.50000000E+00  8.00000000E-01  8.00000000E-01
  1.50000000E+00  1.50000000E+00  8.00000000E-01  8.00000000E-01  1.50000000E+00
  1.50000000E+00  8.00000000E-01  8.00000000E-01  1.50000000E+00  1.50000000E+00
  8.00000000E-01  8.00000000E-01  1.50000000E+00  1.50000000E+00  8.00000000E-01
  8.00000000E-01  1.50000000E+00  1.50000000E+00  8.00000000E-01  8.00000000E-01
  1.50000000E+00  1.50000000E+00  8.00000000E-01  8.00000000E-01  1.50000000E+00
  1.50000000E+00  8.00000000E-01  8.00000000E-01  1.50000000E+00  1.50000000E+00
  8.00000000E-01  8.00000000E-01  1.50000000E+00  1.50000000E+00  8.00000000E-01
  8.00000000E-01  1.50000000E+00  1.50000000E+00  8.00000000E-01  8.00000000E-01
  1.50000000E+00  1.50000000E+00  8.00000000E-01  8.00000000E-01  1.50000000E+00
  1.50000000E+00  8.00000000E-01  8.00000000E-01  1.50000000E+00  1.50000000E+00
  8.00000000E-01  8.00000000E-01  1.50000000E+00  1.50000000E+00  8.00000000E-01
  8.00000000E-01  1.50000000E+00  1.50000000E+00  8.00000000E-01  8.00000000E-01
  1.50000000E+00  1.50000000E+00  8.00000000E-01  8.00000000E-01  1.50000000E+00
  1.50000000E+00  8.00000000E-01  8.00000000E-01  1.50000000E+00  1.50000000E+00
  8.00000000E-01  8.00000000E-01  1.50000000E+00  1.50000000E+00  8.00000000E-01
  8.00000000E-01  1.50000000E+00  1.50000000E+00  8.00000000E-01  8.00000000E-01
  1.50000000E+00  1.50000000E+00  8.00000000E-01  8.00000000E-01  1.50000000E+00
  1.50000000E+00  8.00000000E-01  8.00000000E-01  1.50000000E+00  1.50000000E+00
  8.00000000E-01  8.00000000E-01  1.50000000E+00  1.50000000E+00  8.00000000E-01
  8.00000000E-01  1.50000000E+00  1.50000000E+00  8.00000000E-01  8.00000000E-01
  1.50000000E+00  1.50000000E+00  8.00000000E-01  8.00000000E-01  1.50000000E+00
  1.50000000E+00  8.00000000E-01  8.00000000E-01  1.50000000E+00  1.50000000E+00
  8.00000000E-01  8.00000000E-01  1.50000000E+00  1.50000000E+00  8.00000000E-01
  8.00000000E-01  1.50000000E+00  1.50000000E+00  8.00000000E-01  8.00000000E-01
  1.50000000E+00  1.50000000E+00  8.00000000E-01  8.00000000E-01  1.50000000E+00
  1.50000000E+00  8.00000000E-01  8.00000000E-01  1.50000000E+00  1.50000000E+00
  8.00000000E-01  8.00000000E-01  1.50000000E+00  1.50000000E+00  8.00000000E-01
  8.00000000E-01  1.50000000E+00  1.50000000E+00  8.00000000E-01  8.00000000E-01
  1.50000000E+00  1.50000000E+00  8.00000000E-01  8.00000000E-01  1.50000000E+00
  1.50000000E+00  8.00000000E-01  8.00000000E-01  1.50000000E+00  1.50000000E+00
  8.00000000E-01  8.00000000E-01  1.50000000E+00  1.50000000E+00  8.00000000E-01
  8.00000000E-01  1.50000000E+00  1.50000000E+00  8.00000000E-01  8.00000000E-01
  1.50000000E+00  1.50000000E+00  8.00000000E-01  8.00000000E-01  1.50000000E+00
  1.50000000E+00  8.00000000E-01  8.00000000E-01  1.50000000E+00  1.50000000E+00
  8.00000000E-01  8.00000000E-01  1.50000000E+00  1.50000000E+00  8.00000000E-01
  8.00000000E-01  1.50000000E+00  1.50000000E+00  8.00000000E-01  8.00000000E-01
  1.50000000E+00  1.50000000E+00  8.00000000E-01  8.00000000E-01  1.50000000E+00
  1.50000000E+00  8.00000000E-01  8.00000000E-01  1.50000000E+00  1.50000000E+00
  8.00000000E-01  8.00000000E-01  1.50000000E+00  1.50000000E+00  8.00000000E-01
  8.00000000E-01  1.50000000E+00  1.50000000E+00  8.00000000E-01  8.00000000E-01
  1.50000000E+00  1.50000000E+00  8.00000000E-01  8.00000000E-01  1.50000000E+00
  1.50000000E+00  8.00000000E-01  8.00000000E-01  1.50000000E+00  1.50000000E+00
  8.00000000E-01  8.00000000E-01  1.50000000E+00  1.50000000E+00  8.00000000E-01
  8.00000000E-01  1.50000000E+00  1.50000000E+00  8.00000000E-01  8.00000000E-01
  1.50000000E+00  1.50000000E+00  8.00000000E-01  8.00000000E-01  1.50000000E+00
  1.50000000E+00  8.00000000E-01  8.00000000E-01  1.50000000E+00  1.50000000E+00
  8.00000000E-01  8.00000000E-01  1.50000000E+00  1.50000000E+00  8.00000000E-01
  8.00000000E-01  1.50000000E+00  1.50000000E+00  8.00000000E-01  8.00000000E-01
  1.50000000E+00  1.50000000E+00  8.00000000E-01  8.00000000E-01  1.50000000E+00
  1.50000000E+00  8.00000000E-01  8.00000000E-01  1.50000000E+00  1.50000000E+00
  8.00000000E-01  8.00000000E-01  1.50000000E+00  1.50000000E+00  8.00000000E-01
  8.00000000E-01  1.50000000E+00  1.50000000E+00  8.00000000E-01  8.00000000E-01
  1.50000000E+00  1.50000000E+00  8.00000000E-01  8.00000000E-01  1.50000000E+00
  1.50000000E+00  8.00000000E-01  8.00000000E-01  1.50000000E+00  1.50000000E+00
  8.00000000E-01  8.00000000E-01  1.50000000E+00  1.50000000E+00  8.00000000E-01
  8.00000000E-01  1.50000000E+00  1.50000000E+00  8.00000000E-01  8.00000000E-01
  1.50000000E+00  1.50000000E+00  8.00000000E-01  8.00000000E-01  1.50000000E+00
  1.50000000E+00  8.00000000E-01  8.00000000E-01  1.50000000E+00  1.50000000E+00
  8.00000000E-01  8.00000000E-01  1.50000000E+00  1.50000000E+00  8.00000000E-01
  8.00000000E-01  1.50000000E+00  1.50000000E+00  8.00000000E-01  8.00000000E-01
  1.50000000E+00  1.50000000E+00  8.00000000E-01  8.00000000E-01  1.50000000E+00
  1.50000000E+00  8.00000000E-01  8.00000000E-01  1.50000000E+00  1.50000000E+00
  8.00000000E-01  8.00000000E-01  1.50000000E+00  1.50000000E+00  8.00000000E-01
  8.00000000E-01  1.50000000E+00  1.50000000E+00  8.00000000E-01  8.00000000E-01
  1.50000000E+00  1.50000000E+00  8.00000000E-01  8.00000000E-01  1.50000000E+00
  1.50000000E+00  8.00000000E-01  8.00000000E-01  1.50000000E+00  1.50000000E+00
  8.00000000E-01  8.00000000E-01  1.50000000E+00  1.50000000E+00  8.00000000E-01
  8.00000000E-01  1.50000000E+00  1.50000000E+00  8.00000000E-01  8.00000000E-01
  1.50000000E+00  1.50000000E+00  8.00000000E-01  8.00000000E-01  1.50000000E+00
  1.50000000E+00  8.00000000E-01  8.00000000E-01  1.50000000E+00  1.50000000E+00
  8.00000000E-01  8.00000000E-01  1.50000000E+00  1.50000000E+00  8.00000000E-01
  8.00000000E-01  1.50000000E+00  1.50000000E+00  8.00000000E-01  8.00000000E-01
  1.50000000E+00  1.50000000E+00  8.00000000E-01  8.00000000E-01  1.50000000E+00
  1.50000000E+00  8.00000000E-01  8.00000000E-01  1.50000000E+00  1.50000000E+00
  8.00000000E-01  8.00000000E-01  1.50000000E+00  1.50000000E+00  8.00000000E-01
  8.00000000E-01  1.50000000E+00  1.50000000E+00  8.00000000E-01  8.00000000E-01
  1.50000000E+00  1.50000000E+00  8.00000000E-01  8.00000000E-01  1.50000000E+00
  1.50000000E+00  8.00000000E-01  8.00000000E-01  1.50000000E+00  1.50000000E+00
  8.00000000E-01  8.00000000E-01  1.50000000E+00  1.50000000E+00  8.00000000E-01
  8.00000000E-01  1.50000000E+00  1.50000000E+00  8.00000000E-01  8.00000000E-01
  1.50000000E+00  1.50000000E+00  8.00000000E-01  8.00000000E-01  1.50000000E+00
  1.50000000E+00  8.00000000E-01  8.00000000E-01  1.50000000E+00  1.50000000E+00
  8.00000000E-01  8.00000000E-01  1.50000000E+00  1.50000000E+00  8.00000000E-01
  8.00000000E-01  1.50000000E+00  1.50000000E+00  8.00000000E-01  8.00000000E-01
  1.50000000E+00  1.50000000E+00  8.00000000E-01  8.00000000E-01  1.50000000E+00
  1.50000000E+00  8.00000000E-01  8.00000000E-01  1.50000000E+00  1.50000000E+00
  8.00000000E-01  8.00000000E-01  1.50000000E+00  1.50000000E+00  8.00000000E-01
  8.00000000E-01  1.50000000E+00  1.50000000E+00  8.00000000E-01  8.00000000E-01
  1.50000000E+00  1.50000000E+00  8.00000000E-01  8.00000000E-01  1.50000000E+00
  1.50000000E+00  8.00000000E-01  8.00000000E-01  1.50000000E+00  1.50000000E+00
  8.00000000E-01  8.00000000E-01  1.50000000E+00  1.50000000E+00  8.00000000E-01
  8.00000000E-01  1.50000000E+00  1.50000000E+00  8.00000000E-01  8.00000000E-01
  1.50000000E+00  1.50000000E+00  8.00000000E-01  8.00000000E-01  1.50000000E+00
  1.50000000E+00  8.00000000E-01  8.00000000E-01  1.50000000E+00  1.50000000E+00
  8.00000000E-01  8.00000000E-01  1.50000000E+00  1.50000000E+00  8.00000000E-01
  8.00000000E-01  1.50000000E+00  1.50000000E+00  8.00000000E-01  8.00000000E-01
  1.50000000E+00  1.50000000E+00  8.00000000E-01  8.00000000E-01  1.50000000E+00
  1.50000000E+00  8.00000000E-01  8.00000000E-01  1.50000000E+00  1.50000000E+00
  8.00000000E-01  8.00000000E-01  1.50000000E+00  1.50000000E+00  8.00000000E-01
  8.00000000E-01  1.50000000E+00  1.50000000E+00  8.00000000E-01  8.00000000E-01
  1.50000000E+00  1.50000000E+00  8.00000000E-01  8.00000000E-01  1.50000000E+00
  1.50000000E+00  8.00000000E-01  8.00000000E-01  1.50000000E+00  1.50000000E+00
  8.00000000E-01  8.00000000E-01  1.50000000E+00  1.50000000E+00  8.00000000E-01
  8.00000000E-01  1.50000000E+00  1.50000000E+00  8.00000000E-01  8.00000000E-01
  1.50000000E+00  1.50000000E+00  8.00000000E-01  8.00000000E-01  1.50000000E+00
  1.50000000E+00  8.00000000E-01  8.00000000E-01  1.50000000E+00  1.50000000E+00
  8.00000000E-01  8.00000000E-01  1.50000000E+00  1.50000000E+00  8.00000000E-01
  8.00000000E-01  1.50000000E+00  1.50000000E+00  8.00000000E-01  8.00000000E-01
  1.50000000E+00  1.50000000E+00  8.00000000E-01  8.00000000E-01  1.50000000E+00
  1.50000000E+00  8.00000000E-01  8.00000000E-01  1.50000000E+00  1.50000000E+00
  8.00000000E-01  8.00000000E-01  1.50000000E+00  1.50000000E+00  8.00000000E-01
  8.00000000E-01  1.50000000E+00  1.50000000E+00  8.00000000E-01  8.00000000E-01
  1.50000000E+00  1.50000000E+00  8.00000000E-01  8.00000000E-01  1.50000000E+00
  1.50000000E+00  8.00000000E-01  8.00000000E-01  1.50000000E+00  1.50000000E+00
  8.00000000E-01  8.00000000E-01  1.50000000E+00  1.50000000E+00  8.00000000E-01
  8.00000000E-01  1.50000000E+00  1.50000000E+00  8.00000000E-01  8.00000000E-01
  1.50000000E+00  1.50000000E+00  8.00000000E-01  8.00000000E-01  1.50000000E+00
  1.50000000E+00  8.00000000E-01  8.00000000E-01  1.50000000E+00  1.50000000E+00
  8.00000000E-01  8.00000000E-01  1.50000000E+00  1.50000000E+00  8.00000000E-01
  8.00000000E-01  1.50000000E+00  1.50000000E+00  8.00000000E-01  8.00000000E-01
  1.50000000E+00  1.50000000E+00  8.00000000E-01  8.00000000E-01  1.50000000E+00
  1.50000000E+00  8.00000000E-01  8.00000000E-01  1.50000000E+00  1.50000000E+00
  8.00000000E-01  8.00000000E-01  1.50000000E+00  1.50000000E+00  8.00000000E-01
  8.00000000E-01  1.50000000E+00  1.50000000E+00  8.00000000E-01  8.00000000E-01
  1.50000000E+00  1.50000000E+00  8.00000000E-01  8.00000000E-01  1.50000000E+00
  1.50000000E+00  8.00000000E-01  8.00000000E-01  1.50000000E+00  1.50000000E+00
  8.00000000E-01  8.00000000E-01  1.50000000E+00  1.50000000E+00  8.00000000E-01
  8.00000000E-01  1.50000000E+00  1.50000000E+00  8.00000000E-01  8.00000000E-01
  1.50000000E+00  1.50000000E+00  8.00000000E-01  8.00000000E-01  1.50000000E+00
  1.50000000E+00  8.00000000E-01  8.00000000E-01  1.50000000E+00  1.50000000E+00
  8.00000000E-01  8.00000000E-01  1.50000000E+00  1.50000000E+00  8.00000000E-01
  8.00000000E-01  1.50000000E+00  1.50000000E+00  8.00000000E-01  8.00000000E-01
  1.50000000E+00  1.50000000E+00  8.00000000E-01  8.00000000E-01  1.50000000E+00
  1.50000000E+00  8.00000000E-01  8.00000000E-01  1.50000000E+00  1.50000000E+00
  8.00000000E-01  8.00000000E-01  1.50000000E+00  1.50000000E+00  8.00000000E-01
  8.00000000E-01  1.50000000E+00  1.50000000E+00  8.00000000E-01  8.00000000E-01
  1.50000000E+00  1.50000000E+00  8.00000000E-01  8.00000000E-01  1.50000000E+00
  1.50000000E+00  8.00000000E-01  8.00000000E-01  1.50000000E+00  1.50000000E+00
  8.00000000E-01  8.00000000E-01  1.50000000E+00  1.50000000E+00  8.00000000E-01
  8.00000000E-01  1.50000000E+00  1.50000000E+00  8.00000000E-01  8.00000000E-01
  1.50000000E+00  1.50000000E+00  8.00000000E-01  8.00000000E-01  1.50000000E+00
  1.50000000E+00  8.00000000E-01  8.00000000E-01  1.50000000E+00  1.50000000E+00
  8.00000000E-01  8.00000000E-01  1.50000000E+00  1.50000000E+00  8.00000000E-01
  8.00000000E-01  1.50000000E+00  1.50000000E+00  8.00000000E-01  8.00000000E-01
  1.50000000E+00  1.50000000E+00  8.00000000E-01  8.00000000E-01  1.50000000E+00
  1.50000000E+00  8.00000000E-01  8.00000000E-01  1.50000000E+00  1.50000000E+00
  8.00000000E-01  8.00000000E-01  1.50000000E+00  1.50000000E+00  8.00000000E-01
  8.00000000E-01  1.50000000E+00  1.50000000E+00  8.00000000E-01  8.00000000E-01
  1.50000000E+00  1.50000000E+00  8.00000000E-01  8.00000000E-01  1.50000000E+00
  1.50000000E+00  8.00000000E-01  8.00000000E-01  1.50000000E+00  1.50000000E+00
  8.00000000E-01  8.00000000E-01  1.50000000E+00  1.50000000E+00  8.00000000E-01
  8.00000000E-01  1.50000000E+00  1.50000000E+00  8.00000000E-01  8.00000000E-01
  1.50000000E+00  1.50000000E+00  8.00000000E-01  8.00000000E-01  1.50000000E+00
  1.50000000E+00  8.00000000E-01  8.00000000E-01  1.50000000E+00  1.50000000E+00
  8.00000000E-01  8.00000000E-01  1.50000000E+00  1.50000000E+00  8.00000000E-01
  8.00000000E-01  1.50000000E+00  1.50000000E+00  8.00000000E-01  8.00000000E-01
  1.50000000E+00  1.50000000E+00  8.00000000E-01  8.00000000E-01  1.50000000E+00
  1.50000000E+00  8.00000000E-01  8.00000000E-01  1.50000000E+00  1.50000000E+00
  8.00000000E-01  8.00000000E-01  1.50000000E+00  1.50000000E+00  8.00000000E-01
  8.00000000E-01  1.50000000E+00  1.50000000E+00  8.00000000E-01  8.00000000E-01
  1.50000000E+00  1.50000000E+00  8.00000000E-01  8.00000000E-01  1.50000000E+00
  1.50000000E+00  8.00000000E-01  8.00000000E-01  1.50000000E+00  1.50000000E+00
  8.00000000E-01  8.00000000E-01  1.50000000E+00  1.50000000E+00  8.00000000E-01
  8.00000000E-01  1.50000000E+00  1.50000000E+00  8.00000000E-01  8.00000000E-01
  1.50000000E+00  1.50000000E+00  8.00000000E-01  8.00000000E-01  1.50000000E+00
  1.50000000E+00  8.00000000E-01  8.00000000E-01  1.50000000E+00  1.50000000E+00
  8.00000000E-01  8.00000000E-01  1.50000000E+00  1.50000000E+00  8.00000000E-01
  8.00000000E-01  1.50000000E+00  1.50000000E+00  8.00000000E-01  8.00000000E-01
  1.50000000E+00  1.50000000E+00  8.00000000E-01  8.00000000E-01  1.50000000E+00
  1.50000000E+00  8.00000000E-01  8.00000000E-01  1.50000000E+00  1.50000000E+00
  8.00000000E-01  8.00000000E-01  1.50000000E+00  1.50000000E+00  8.00000000E-01
  8.00000000E-01  1.50000000E+00  1.50000000E+00  8.00000000E-01  8.00000000E-01
  1.50000000E+00  1.50000000E+00  8.00000000E-01  8.00000000E-01  1.50000000E+00
  1.50000000E+00  8.00000000E-01  8.00000000E-01  1.50000000E+00  1.50000000E+00
  8.00000000E-01  8.00000000E-01  1.50000000E+00  1.50000000E+00  8.00000000E-01
  8.00000000E-01  1.50000000E+00  1.50000000E+00  8.00000000E-01  8.00000000E-01
  1.50000000E+00  1.50000000E+00  8.00000000E-01  8.00000000E-01  1.50000000E+00
  1.50000000E+00  8.00000000E-01  8.00000000E-01  1.50000000E+00  1.50000000E+00
  8.00000000E-01  8.00000000E-01  1.50000000E+00  1.50000000E+00  8.00000000E-01
  8.00000000E-01  1.50000000E+00  1.50000000E+00  8.00000000E-01  8.00000000E-01
  1.50000000E+00  1.50000000E+00  8.00000000E-01  8.00000000E-01  1.50000000E+00
  1.50000000E+00  8.00000000E-01  8.00000000E-01  1.50000000E+00  1.50000000E+00
  8.00000000E-01  8.00000000E-01  1.50000000E+00  1.50000000E+00  8.00000000E-01
  8.00000000E-01  1.50000000E+00  1.50000000E+00  8.00000000E-01  8.00000000E-01
  1.50000000E+00  1.50000000E+00  8.00000000E-01  8.00000000E-01  1.50000000E+00
  1.50000000E+00  8.00000000E-01  8.00000000E-01  1.50000000E+00  1.50000000E+00
  8.00000000E-01  8.00000000E-01  1.50000000E+00  1.50000000E+00  8.00000000E-01
  8.00000000E-01  1.50000000E+00  1.50000000E+00  8.00000000E-01  8.00000000E-01
  1.50000000E+00  1.50000000E+00  8.00000000E-01  8.00000000E-01  1.50000000E+00
  1.50000000E+00  8.00000000E-01  8.00000000E-01  1.50000000E+00  1.50000000E+00
  8.00000000E-01  8.00000000E-01  1.50000000E+00  1.50000000E+00  8.00000000E-01
  8.00000000E-01  1.50000000E+00  1.50000000E+00  8.00000000E-01  8.00000000E-01
  1.50000000E+00  1.50000000E+00  8.00000000E-01  8.00000000E-01  1.50000000E+00
  1.50000000E+00  8.00000000E-01  8.00000000E-01  1.50000000E+00  1.50000000E+00
  8.00000000E-01  8.00000000E-01  1.50000000E+00  1.50000000E+00  8.00000000E-01
  8.00000000E-01  1.50000000E+00  1.50000000E+00  8.00000000E-01  8.00000000E-01
  1.50000000E+00  1.50000000E+00  8.00000000E-01  8.00000000E-01  1.50000000E+00
  1.50000000E+00  8.00000000E-01  8.00000000E-01  1.50000000E+00  1.50000000E+00
  8.00000000E-01  8.00000000E-01  1.50000000E+00  1.50000000E+00  8.00000000E-01
  8.00000000E-01  1.50000000E+00  1.50000000E+00  8.00000000E-01  8.00000000E-01
  1.50000000E+00  1.50000000E+00  8.00000000E-01  8.00000000E-01  1.50000000E+00
  1.50000000E+00  8.00000000E-01  8.00000000E-01  1.50000000E+00  1.50000000E+00
  8.00000000E-01  8.00000000E-01  1.50000000E+00  1.50000000E+00  8.00000000E-01
  8.00000000E-01  1.50000000E+00  1.50000000E+00  8.00000000E-01  8.00000000E-01
  1.50000000E+00  1.50000000E+00  8.00000000E-01  8.00000000E-01  1.50000000E+00
  1.50000000E+00  8.00000000E-01  8.00000000E-01  1.50000000E+00  1.50000000E+00
  8.00000000E-01  8.00000000E-01  1.50000000E+00  1.50000000E+00  8.00000000E-01
  8.00000000E-01  1.50000000E+00  1.50000000E+00  8.00000000E-01  8.00000000E-01
  1.50000000E+00  1.50000000E+00  8.00000000E-01  8.00000000E-01  1.50000000E+00
  1.50000000E+00  8.00000000E-01  8.00000000E-01  1.50000000E+00  1.50000000E+00
  8.00000000E-01  8.00000000E-01  1.50000000E+00  1.50000000E+00  8.00000000E-01
  8.00000000E-01  1.50000000E+00  1.50000000E+00  8.00000000E-01  8.00000000E-01
  1.50000000E+00  1.50000000E+00  8.00000000E-01  8.00000000E-01  1.50000000E+00
  1.50000000E+00  8.00000000E-01  8.00000000E-01  1.50000000E+00  1.50000000E+00
  8.00000000E-01  8.00000000E-01  1.50000000E+00  1.50000000E+00  8.00000000E-01
  8.00000000E-01  1.50000000E+00  1.50000000E+00  8.00000000E-01  8.00000000E-01
  1.50000000E+00  1.50000000E+00  8.00000000E-01  8.00000000E-01  1.50000000E+00
  1.50000000E+00  8.00000000E-01  8.00000000E-01  1.50000000E+00  1.50000000E+00
  8.00000000E-01  8.00000000E-01  1.50000000E+00  1.50000000E+00  8.00000000E-01
  8.00000000E-01  1.50000000E+00  1.50000000E+00  8.00000000E-01  8.00000000E-01
  1.50000000E+00  1.50000000E+00  8.00000000E-01  8.00000000E-01  1.50000000E+00
  1.50000000E+00  8.00000000E-01  8.00000000E-01  1.50000000E+00  1.50000000E+00
  8.00000000E-01  8.00000000E-01  1.50000000E+00  1.50000000E+00  8.00000000E-01
  8.00000000E-01  1.50000000E+00  1.50000000E+00  8.00000000E-01  8.00000000E-01
  1.50000000E+00  1.50000000E+00  8.00000000E-01  8.00000000E-01  1.50000000E+00
  1.50000000E+00  8.00000000E-01  8.00000000E-01  1.50000000E+00  1.50000000E+00
  8.00000000E-01  8.00000000E-01  1.50000000E+00  1.50000000E+00  8.00000000E-01
  8.00000000E-01  1.50000000E+00  1.50000000E+00  8.00000000E-01  8.00000000E-01
  1.50000000E+00  1.50000000E+00  8.00000000E-01  8.00000000E-01  1.50000000E+00
  1.50000000E+00  8.00000000E-01  8.00000000E-01  1.50000000E+00  1.50000000E+00
  8.00000000E-01  8.00000000E-01  1.50000000E+00  1.50000000E+00  8.00000000E-01
  8.00000000E-01  1.50000000E+00  1.50000000E+00  8.00000000E-01  8.00000000E-01
  1.50000000E+00  1.50000000E+00  8.00000000E-01  8.00000000E-01  1.50000000E+00
  1.50000000E+00  8.00000000E-01  8.00000000E-01  1.50000000E+00  1.50000000E+00
  8.00000000E-01  8.00000000E-01  1.50000000E+00  1.50000000E+00  8.00000000E-01
  8.00000000E-01  1.50000000E+00  1.50000000E+00  8.00000000E-01  8.00000000E-01
  1.50000000E+00  1.50000000E+00  8.00000000E-01  8.00000000E-01  1.50000000E+00
  1.50000000E+00  8.00000000E-01  8.00000000E-01  1.50000000E+00  1.50000000E+00
  8.00000000E-01  8.00000000E-01  1.50000000E+00  1.50000000E+00  8.00000000E-01
  8.00000000E-01  1.50000000E+00  1.50000000E+00  8.00000000E-01  8.00000000E-01
  1.50000000E+00  1.50000000E+00  8.00000000E-01  8.00000000E-01  1.50000000E+00
  1.50000000E+00  8.00000000E-01  8.00000000E-01  1.50000000E+00  1.50000000E+00
  8.00000000E-01  8.00000000E-01  1.50000000E+00  1.50000000E+00  8.00000000E-01
  8.00000000E-01  1.50000000E+00  1.50000000E+00  8.00000000E-01  8.00000000E-01
  1.50000000E+00  1.50000000E+00  8.00000000E-01  8.00000000E-01  1.50000000E+00
  1.50000000E+00  8.00000000E-01  8.00000000E-01  1.50000000E+00  1.50000000E+00
  8.00000000E-01  8.00000000E-01  1.50000000E+00  1.50000000E+00  8.00000000E-01
  8.00000000E-01  1.50000000E+00  1.50000000E+00  8.00000000E-01  8.00000000E-01
  1.50000000E+00  1.50000000E+00  8.00000000E-01  8.00000000E-01  1.50000000E+00
  1.50000000E+00  8.00000000E-01  8.00000000E-01  1.50000000E+00  1.50000000E+00
  8.00000000E-01  8.00000000E-01  1.50000000E+00  1.50000000E+00  8.00000000E-01
  8.00000000E-01  1.50000000E+00  1.50000000E+00  8.00000000E-01  8.00000000E-01
  1.50000000E+00  1.50000000E+00  8.00000000E-01  8.00000000E-01  1.50000000E+00
  1.50000000E+00  8.00000000E-01  8.00000000E-01  1.50000000E+00  1.50000000E+00
  8.00000000E-01  8.00000000E-01  1.50000000E+00  1.50000000E+00  8.00000000E-01
  8.00000000E-01  1.50000000E+00  1.50000000E+00  8.00000000E-01  8.00000000E-01
  1.50000000E+00  1.50000000E+00  8.00000000E-01  8.00000000E-01  1.50000000E+00
  1.50000000E+00  8.00000000E-01  8.00000000E-01  1.50000000E+00  1.50000000E+00
  8.00000000E-01  8.00000000E-01  1.50000000E+00  1.50000000E+00  8.00000000E-01
  8.00000000E-01  1.50000000E+00  1.50000000E+00  8.00000000E-01  8.00000000E-01
  1.50000000E+00  1.50000000E+00  8.00000000E-01  8.00000000E-01  1.50000000E+00
  1.50000000E+00  8.00000000E-01  8.00000000E-01  1.50000000E+00  1.50000000E+00
  8.00000000E-01  8.00000000E-01  1.50000000E+00  1.50000000E+00  8.00000000E-01
  8.00000000E-01  1.50000000E+00  1.50000000E+00  8.00000000E-01  8.00000000E-01
  1.50000000E+00  1.50000000E+00  8.00000000E-01  8.00000000E-01  1.50000000E+00
  1.50000000E+00  8.00000000E-01  8.00000000E-01  1.50000000E+00  1.50000000E+00
  8.00000000E-01  8.00000000E-01  1.50000000E+00  1.50000000E+00  8.00000000E-01
  8.00000000E-01  1.50000000E+00  1.50000000E+00  8.00000000E-01  8.00000000E-01
  1.50000000E+00  1.50000000E+00  8.00000000E-01  8.00000000E-01  1.50000000E+00
  1.50000000E+00  8.00000000E-01  8.00000000E-01  1.50000000E+00  1.50000000E+00
  8.00000000E-01  8.00000000E-01  1.50000000E+00  1.50000000E+00  8.00000000E-01
  8.00000000E-01  1.50000000E+00  1.50000000E+00  8.00000000E-01  8.00000000E-01
  1.50000000E+00  1.50000000E+00  8.00000000E-01  8.00000000E-01  1.50000000E+00
  1.50000000E+00  8.00000000E-01  8.00000000E-01  1.50000000E+00  1.50000000E+00
  8.00000000E-01  8.00000000E-01  1.50000000E+00  1.50000000E+00  8.00000000E-01
  8.00000000E-01  1.50000000E+00  1.50000000E+00  8.00000000E-01  8.00000000E-01
  1.50000000E+00  1.50000000E+00  8.00000000E-01  8.00000000E-01  1.50000000E+00
  1.50000000E+00  8.00000000E-01  8.00000000E-01  1.50000000E+00  1.50000000E+00
  8.00000000E-01  8.00000000E-01  1.50000000E+00  1.50000000E+00  8.00000000E-01
  8.00000000E-01  1.50000000E+00  1.50000000E+00  8.00000000E-01  8.00000000E-01
  1.50000000E+00  1.50000000E+00  8.00000000E-01  8.00000000E-01  1.50000000E+00
  1.50000000E+00  8.00000000E-01  8.00000000E-01  1.50000000E+00  1.50000000E+00
  8.00000000E-01  8.00000000E-01  1.50000000E+00  1.50000000E+00  8.00000000E-01
  8.00000000E-01  1.50000000E+00  1.50000000E+00  8.00000000E-01  8.00000000E-01
  1.50000000E+00  1.50000000E+00  8.00000000E-01  8.00000000E-01  1.50000000E+00
  1.50000000E+00  8.00000000E-01  8.00000000E-01  1.50000000E+00  1.50000000E+00
  8.00000000E-01  8.00000000E-01  1.50000000E+00  1.50000000E+00  8.00000000E-01
  8.00000000E-01  1.50000000E+00  1.50000000E+00  8.00000000E-01  8.00000000E-01
  1.50000000E+00  1.50000000E+00  8.00000000E-01  8.00000000E-01  1.50000000E+00
  1.50000000E+00  8.00000000E-01  8.00000000E-01  1.50000000E+00  1.50000000E+00
  8.00000000E-01  8.00000000E-01  1.50000000E+00  1.50000000E+00  8.00000000E-01
  8.00000000E-01  1.50000000E+00  1.50000000E+00  8.00000000E-01  8.00000000E-01
  1.50000000E+00  1.50000000E+00  8.00000000E-01  8.00000000E-01  1.50000000E+00
  1.50000000E+00  8.00000000E-01  8.00000000E-01  1.50000000E+00  1.50000000E+00
  8.00000000E-01  8.00000000E-01  1.50000000E+00  1.50000000E+00  8.00000000E-01
  8.00000000E-01  1.50000000E+00  1.50000000E+00  8.00000000E-01  8.00000000E-01
  1.50000000E+00  1.50000000E+00  8.00000000E-01  8.00000000E-01  1.50000000E+00
  1.50000000E+00  8.00000000E-01  8.00000000E-01  1.50000000E+00  1.50000000E+00
  8.00000000E-01  8.00000000E-01  1.50000000E+00  1.50000000E+00  8.00000000E-01
  8.00000000E-01  1.50000000E+00  1.50000000E+00  8.00000000E-01  8.00000000E-01
  1.50000000E+00  1.50000000E+00  8.00000000E-01  8.00000000E-01  1.50000000E+00
  1.50000000E+00  8.00000000E-01  8.00000000E-01  1.50000000E+00  1.50000000E+00
  8.00000000E-01  8.00000000E-01  1.50000000E+00  1.50000000E+00  8.00000000E-01
  8.00000000E-01  1.50000000E+00  1.50000000E+00  8.00000000E-01  8.00000000E-01
  1.50000000E+00  1.50000000E+00  8.00000000E-01  8.00000000E-01  1.50000000E+00
  1.50000000E+00  8.00000000E-01  8.00000000E-01  1.50000000E+00  1.50000000E+00
  8.00000000E-01  8.00000000E-01  1.50000000E+00  1.50000000E+00  8.00000000E-01
  8.00000000E-01  1.50000000E+00  1.50000000E+00  8.00000000E-01  8.00000000E-01
  1.50000000E+00  1.50000000E+00  8.00000000E-01  8.00000000E-01  1.50000000E+00
  1.50000000E+00  8.00000000E-01  8.00000000E-01  1.50000000E+00  1.50000000E+00
  8.00000000E-01  8.00000000E-01  1.50000000E+00  1.50000000E+00  8.00000000E-01
  8.00000000E-01  1.50000000E+00  1.50000000E+00  8.00000000E-01  8.00000000E-01
  1.50000000E+00  1.50000000E+00  8.00000000E-01  8.00000000E-01  1.50000000E+00
  1.50000000E+00  8.00000000E-01  8.00000000E-01  1.50000000E+00  1.50000000E+00
  8.00000000E-01  8.00000000E-01  1.50000000E+00  1.50000000E+00  8.00000000E-01
  8.00000000E-01  1.50000000E+00  1.50000000E+00  8.00000000E-01  8.00000000E-01
  1.50000000E+00  1.50000000E+00  8.00000000E-01  8.00000000E-01  1.50000000E+00
  1.50000000E+00  8.00000000E-01  8.00000000E-01  1.50000000E+00  1.50000000E+00
  8.00000000E-01  8.00000000E-01  1.50000000E+00  1.50000000E+00  8.00000000E-01
  8.00000000E-01  1.50000000E+00  1.50000000E+00  8.00000000E-01  8.00000000E-01
  1.50000000E+00  1.50000000E+00  8.00000000E-01  8.00000000E-01  1.50000000E+00
  1.50000000E+00  8.00000000E-01  8.00000000E-01  1.50000000E+00  1.50000000E+00
  8.00000000E-01  8.00000000E-01  1.50000000E+00  1.50000000E+00  8.00000000E-01
  8.00000000E-01  1.50000000E+00  1.50000000E+00  8.00000000E-01  8.00000000E-01
  1.50000000E+00  1.50000000E+00  8.00000000E-01  8.00000000E-01  1.50000000E+00
  1.50000000E+00  8.00000000E-01  8.00000000E-01  1.50000000E+00  1.50000000E+00
  8.00000000E-01  8.00000000E-01  1.50000000E+00  1.50000000E+00  8.00000000E-01
  8.00000000E-01  1.50000000E+00  1.50000000E+00  8.00000000E-01  8.00000000E-01
  1.50000000E+00  1.50000000E+00  8.00000000E-01  8.00000000E-01  1.50000000E+00
  1.50000000E+00  8.00000000E-01  8.00000000E-01  1.50000000E+00  1.50000000E+00
  8.00000000E-01  8.00000000E-01  1.50000000E+00  1.50000000E+00  8.00000000E-01
  8.00000000E-01  1.50000000E+00  1.50000000E+00  8.00000000E-01  8.00000000E-01
  1.50000000E+00  1.50000000E+00  8.00000000E-01  8.00000000E-01  1.50000000E+00
  1.50000000E+00  8.00000000E-01  8.00000000E-01  1.50000000E+00  1.50000000E+00
  8.00000000E-01  8.00000000E-01  1.50000000E+00  1.50000000E+00  8.00000000E-01
  8.00000000E-01  1.50000000E+00  1.50000000E+00  8.00000000E-01  8.00000000E-01
  1.50000000E+00  1.50000000E+00  8.00000000E-01  8.00000000E-01  1.50000000E+00
  1.50000000E+00  8.00000000E-01  8.00000000E-01  1.50000000E+00  1.50000000E+00
  8.00000000E-01  8.00000000E-01  1.50000000E+00  1.50000000E+00  8.00000000E-01
  8.00000000E-01  1.50000000E+00  1.50000000E+00  8.00000000E-01  8.00000000E-01
  1.50000000E+00  1.50000000E+00  8.00000000E-01  8.00000000E-01  1.50000000E+00
  1.50000000E+00  8.00000000E-01  8.00000000E-01  1.50000000E+00  1.50000000E+00
  8.00000000E-01  8.00000000E-01  1.50000000E+00  1.50000000E+00  8.00000000E-01
  8.00000000E-01  1.50000000E+00  1.50000000E+00  8.00000000E-01  8.00000000E-01
  1.50000000E+00  1.50000000E+00  8.00000000E-01  8.00000000E-01  1.50000000E+00
  1.50000000E+00  8.00000000E-01  8.00000000E-01  1.50000000E+00  1.50000000E+00
  8.00000000E-01  8.00000000E-01  1.50000000E+00  1.50000000E+00  8.00000000E-01
  8.00000000E-01  1.50000000E+00  1.50000000E+00  8.00000000E-01  8.00000000E-01
  1.50000000E+00  1.50000000E+00  8.00000000E-01  8.00000000E-01  1.50000000E+00
  1.50000000E+00  8.00000000E-01  8.00000000E-01  1.50000000E+00  1.50000000E+00
  8.00000000E-01  8.00000000E-01  1.50000000E+00  1.50000000E+00  8.00000000E-01
  8.00000000E-01  1.50000000E+00  1.50000000E+00  8.00000000E-01  8.00000000E-01
  1.50000000E+00  1.50000000E+00  8.00000000E-01  8.00000000E-01  1.50000000E+00
  1.50000000E+00  8.00000000E-01  8.00000000E-01  1.50000000E+00  1.50000000E+00
  8.00000000E-01  8.00000000E-01  1.50000000E+00  1.50000000E+00  8.00000000E-01
  8.00000000E-01  1.50000000E+00  1.50000000E+00  8.00000000E-01  8.00000000E-01
  1.50000000E+00  1.50000000E+00  8.00000000E-01  8.00000000E-01  1.50000000E+00
  1.50000000E+00  8.00000000E-01  8.00000000E-01  1.50000000E+00  1.50000000E+00
  8.00000000E-01  8.00000000E-01  1.50000000E+00  1.50000000E+00  8.00000000E-01
  8.00000000E-01  1.50000000E+00  1.50000000E+00  8.00000000E-01  8.00000000E-01
  1.50000000E+00  1.50000000E+00  8.00000000E-01  8.00000000E-01  1.50000000E+00
  1.50000000E+00  8.00000000E-01  8.00000000E-01  1.50000000E+00  1.50000000E+00
  8.00000000E-01  8.00000000E-01  1.50000000E+00  1.50000000E+00  8.00000000E-01
  8.00000000E-01  1.50000000E+00  1.50000000E+00  8.00000000E-01  8.00000000E-01
  1.50000000E+00  1.50000000E+00  8.00000000E-01  8.00000000E-01  1.50000000E+00
  1.50000000E+00  8.00000000E-01  8.00000000E-01  1.50000000E+00  1.50000000E+00
  8.00000000E-01  8.00000000E-01  1.50000000E+00  1.50000000E+00  8.00000000E-01
  8.00000000E-01  1.50000000E+00  1.50000000E+00  8.00000000E-01  8.00000000E-01
  1.50000000E+00  1.50000000E+00  8.00000000E-01  8.00000000E-01  1.50000000E+00
  1.50000000E+00  8.00000000E-01  8.00000000E-01  1.50000000E+00  1.50000000E+00
  8.00000000E-01  8.00000000E-01  1.50000000E+00  1.50000000E+00  8.00000000E-01
  8.00000000E-01  1.50000000E+00  1.50000000E+00  8.00000000E-01  8.00000000E-01
  1.50000000E+00  1.50000000E+00  8.00000000E-01  8.00000000E-01  1.50000000E+00
  1.50000000E+00  8.00000000E-01  8.00000000E-01  1.50000000E+00  1.50000000E+00
  8.00000000E-01  8.00000000E-01  1.50000000E+00  1.50000000E+00  8.00000000E-01
  8.00000000E-01  1.50000000E+00  1.50000000E+00  8.00000000E-01  8.00000000E-01
  1.50000000E+00  1.50000000E+00  8.00000000E-01  8.00000000E-01  1.50000000E+00
  1.50000000E+00  8.00000000E-01  8.00000000E-01  1.50000000E+00  1.50000000E+00
  8.00000000E-01  8.00000000E-01  1.50000000E+00  1.50000000E+00  8.00000000E-01
  8.00000000E-01  1.50000000E+00  1.50000000E+00  8.00000000E-01  8.00000000E-01
  1.50000000E+00  1.50000000E+00  8.00000000E-01  8.00000000E-01  1.50000000E+00
  1.50000000E+00  8.00000000E-01  8.00000000E-01  1.50000000E+00  1.50000000E+00
  8.00000000E-01  8.00000000E-01  1.50000000E+00  1.50000000E+00  8.00000000E-01
  8.00000000E-01  1.50000000E+00  1.50000000E+00  8.00000000E-01  8.00000000E-01
  1.50000000E+00  1.50000000E+00  8.00000000E-01  8.00000000E-01  1.50000000E+00
  1.50000000E+00  8.00000000E-01  8.00000000E-01  1.50000000E+00  1.50000000E+00
  8.00000000E-01  8.00000000E-01  1.50000000E+00  1.50000000E+00  8.00000000E-01
  8.00000000E-01  1.50000000E+00  1.50000000E+00  8.00000000E-01  8.00000000E-01
  1.50000000E+00  1.50000000E+00  8.00000000E-01  8.00000000E-01  1.50000000E+00
  1.50000000E+00  8.00000000E-01  8.00000000E-01  1.50000000E+00  1.50000000E+00
  8.00000000E-01  8.00000000E-01  1.50000000E+00  1.50000000E+00  8.00000000E-01
  8.00000000E-01  1.50000000E+00  1.50000000E+00  8.00000000E-01  8.00000000E-01
  1.50000000E+00  1.50000000E+00  8.00000000E-01  8.00000000E-01  1.50000000E+00
  1.50000000E+00  8.00000000E-01  8.00000000E-01  1.50000000E+00  1.50000000E+00
  8.00000000E-01  8.00000000E-01  1.50000000E+00  1.50000000E+00  8.00000000E-01
  8.00000000E-01  1.50000000E+00  1.50000000E+00  8.00000000E-01  8.00000000E-01
  1.50000000E+00  1.50000000E+00  8.00000000E-01  8.00000000E-01  1.50000000E+00
  1.50000000E+00  8.00000000E-01  8.00000000E-01  1.50000000E+00  1.50000000E+00
  8.00000000E-01  8.00000000E-01  1.50000000E+00  1.50000000E+00  8.00000000E-01
  8.00000000E-01  1.50000000E+00  1.50000000E+00  8.00000000E-01  8.00000000E-01
  1.50000000E+00  1.50000000E+00  8.00000000E-01  8.00000000E-01  1.50000000E+00
  1.50000000E+00  8.00000000E-01  8.00000000E-01  1.50000000E+00  1.50000000E+00
  8.00000000E-01  8.00000000E-01  1.50000000E+00  1.50000000E+00  8.00000000E-01
  8.00000000E-01  1.50000000E+00  1.50000000E+00  8.00000000E-01  8.00000000E-01
  1.50000000E+00  1.50000000E+00  8.00000000E-01  8.00000000E-01  1.50000000E+00
  1.50000000E+00  8.00000000E-01  8.00000000E-01  1.50000000E+00  1.50000000E+00
  8.00000000E-01  8.00000000E-01  1.50000000E+00  1.50000000E+00  8.00000000E-01
  8.00000000E-01  1.50000000E+00  1.50000000E+00  8.00000000E-01  8.00000000E-01
  1.50000000E+00  1.50000000E+00  8.00000000E-01  8.00000000E-01  1.50000000E+00
  1.50000000E+00  8.00000000E-01  8.00000000E-01  1.50000000E+00  1.50000000E+00
  8.00000000E-01  8.00000000E-01  1.50000000E+00  1.50000000E+00  8.00000000E-01
  8.00000000E-01  1.50000000E+00  1.50000000E+00  8.00000000E-01  8.00000000E-01
  1.50000000E+00  1.50000000E+00  8.00000000E-01  8.00000000E-01  1.50000000E+00
  1.50000000E+00  8.00000000E-01  8.00000000E-01  1.50000000E+00  1.50000000E+00
  8.00000000E-01  8.00000000E-01  1.50000000E+00  1.50000000E+00  8.00000000E-01
  8.00000000E-01  1.50000000E+00  1.50000000E+00  8.00000000E-01  8.00000000E-01
  1.50000000E+00  1.50000000E+00  8.00000000E-01  8.00000000E-01  1.50000000E+00
  1.50000000E+00  8.00000000E-01  8.00000000E-01  1.50000000E+00  1.50000000E+00
  8.00000000E-01  8.00000000E-01  1.50000000E+00  1.50000000E+00  8.00000000E-01
  8.00000000E-01  1.50000000E+00  1.50000000E+00  8.00000000E-01  8.00000000E-01
  1.50000000E+00  1.50000000E+00  8.00000000E-01  8.00000000E-01  1.50000000E+00
  1.50000000E+00  8.00000000E-01  8.00000000E-01  1.50000000E+00  1.50000000E+00
  8.00000000E-01  8.00000000E-01  1.50000000E+00  1.50000000E+00  8.00000000E-01
  8.00000000E-01  1.50000000E+00  1.50000000E+00  8.00000000E-01  8.00000000E-01
  1.50000000E+00  1.50000000E+00  8.00000000E-01  8.00000000E-01  1.50000000E+00
  1.50000000E+00  8.00000000E-01  8.00000000E-01  1.50000000E+00  1.50000000E+00
  8.00000000E-01  8.00000000E-01  1.50000000E+00  1.50000000E+00  8.00000000E-01
  8.00000000E-01  1.50000000E+00  1.50000000E+00  8.00000000E-01  8.00000000E-01
  1.50000000E+00  1.50000000E+00  8.00000000E-01  8.00000000E-01  1.50000000E+00
  1.50000000E+00  8.00000000E-01  8.00000000E-01  1.50000000E+00  1.50000000E+00
  8.00000000E-01  8.00000000E-01  1.50000000E+00  1.50000000E+00  8.00000000E-01
  8.00000000E-01  1.50000000E+00  1.50000000E+00  8.00000000E-01  8.00000000E-01
  1.50000000E+00  1.50000000E+00  8.00000000E-01  8.00000000E-01  1.50000000E+00
  1.50000000E+00  8.00000000E-01  8.00000000E-01  1.50000000E+00  1.50000000E+00
  8.00000000E-01  8.00000000E-01  1.50000000E+00  1.50000000E+00  8.00000000E-01
  8.00000000E-01  1.50000000E+00  1.50000000E+00  8.00000000E-01  8.00000000E-01
  1.50000000E+00  1.50000000E+00  8.00000000E-01  8.00000000E-01  1.50000000E+00
  1.50000000E+00  8.00000000E-01  8.00000000E-01  1.50000000E+00  1.50000000E+00
  8.00000000E-01  8.00000000E-01  1.50000000E+00  1.50000000E+00  8.00000000E-01
  8.00000000E-01  1.50000000E+00  1.50000000E+00  8.00000000E-01  8.00000000E-01
  1.50000000E+00  1.50000000E+00  8.00000000E-01  8.00000000E-01  1.50000000E+00
  1.50000000E+00  8.00000000E-01  8.00000000E-01  1.50000000E+00  1.50000000E+00
  8.00000000E-01  8.00000000E-01  1.50000000E+00  1.50000000E+00  8.00000000E-01
  8.00000000E-01  1.50000000E+00  1.50000000E+00  8.00000000E-01  8.00000000E-01
  1.50000000E+00  1.50000000E+00  8.00000000E-01  8.00000000E-01  1.50000000E+00
  1.50000000E+00  8.00000000E-01  8.00000000E-01  1.50000000E+00  1.50000000E+00
  8.00000000E-01  8.00000000E-01  1.50000000E+00  1.50000000E+00  8.00000000E-01
  8.00000000E-01  1.50000000E+00  1.50000000E+00  8.00000000E-01  8.00000000E-01
  1.50000000E+00  1.50000000E+00  8.00000000E-01  8.00000000E-01  1.50000000E+00
  1.50000000E+00  8.00000000E-01  8.00000000E-01  1.50000000E+00  1.50000000E+00
  8.00000000E-01  8.00000000E-01  1.50000000E+00  1.50000000E+00  8.00000000E-01
  8.00000000E-01  1.50000000E+00  1.50000000E+00  8.00000000E-01  8.00000000E-01
  1.50000000E+00  1.50000000E+00  8.00000000E-01  8.00000000E-01  1.50000000E+00
  1.50000000E+00  8.00000000E-01  8.00000000E-01  1.50000000E+00  1.50000000E+00
  8.00000000E-01  8.00000000E-01  1.50000000E+00  1.50000000E+00  8.00000000E-01
  8.00000000E-01  1.50000000E+00  1.50000000E+00  8.00000000E-01  8.00000000E-01
  1.50000000E+00  1.50000000E+00  8.00000000E-01  8.00000000E-01  1.50000000E+00
  1.50000000E+00  8.00000000E-01  8.00000000E-01  1.50000000E+00  1.50000000E+00
  8.00000000E-01  8.00000000E-01  1.50000000E+00  1.50000000E+00  8.00000000E-01
  8.00000000E-01  1.50000000E+00  1.50000000E+00  8.00000000E-01  8.00000000E-01
  1.50000000E+00  1.50000000E+00  8.00000000E-01  8.00000000E-01  1.50000000E+00
  1.50000000E+00  8.00000000E-01  8.00000000E-01  1.50000000E+00  1.50000000E+00
  8.00000000E-01  8.00000000E-01  1.50000000E+00  1.50000000E+00  8.00000000E-01
  8.00000000E-01  1.50000000E+00  1.50000000E+00  8.00000000E-01  8.00000000E-01
  1.50000000E+00  1.50000000E+00  8.00000000E-01  8.00000000E-01  1.50000000E+00
  1.50000000E+00  8.00000000E-01  8.00000000E-01  1.50000000E+00  1.50000000E+00
  8.00000000E-01  8.00000000E-01  1.50000000E+00  1.50000000E+00  8.00000000E-01
  8.00000000E-01  1.50000000E+00  1.50000000E+00  8.00000000E-01  8.00000000E-01
  1.50000000E+00  1.50000000E+00  8.00000000E-01  8.00000000E-01  1.50000000E+00
  1.50000000E+00  8.00000000E-01  8.00000000E-01  1.50000000E+00  1.50000000E+00
  8.00000000E-01  8.00000000E-01  1.50000000E+00  1.50000000E+00  8.00000000E-01
  8.00000000E-01  1.50000000E+00  1.50000000E+00  8.00000000E-01  8.00000000E-01
  1.50000000E+00  1.50000000E+00  8.00000000E-01  8.00000000E-01  1.50000000E+00
  1.50000000E+00  8.00000000E-01  8.00000000E-01  1.50000000E+00  1.50000000E+00
  8.00000000E-01  8.00000000E-01  1.50000000E+00  1.50000000E+00  8.00000000E-01
  8.00000000E-01  1.50000000E+00  1.50000000E+00  8.00000000E-01  8.00000000E-01
  1.50000000E+00  1.50000000E+00  8.00000000E-01  8.00000000E-01  1.50000000E+00
  1.50000000E+00  8.00000000E-01  8.00000000E-01  1.50000000E+00  1.50000000E+00
  8.00000000E-01  8.00000000E-01  1.50000000E+00  1.50000000E+00  8.00000000E-01
  8.00000000E-01  1.50000000E+00  1.50000000E+00  8.00000000E-01  8.00000000E-01
  1.50000000E+00  1.50000000E+00  8.00000000E-01  8.00000000E-01  1.50000000E+00
  1.50000000E+00  8.00000000E-01  8.00000000E-01  1.50000000E+00  1.50000000E+00
  8.00000000E-01  8.00000000E-01  1.50000000E+00  1.50000000E+00  8.00000000E-01
  8.00000000E-01  1.50000000E+00  1.50000000E+00  8.00000000E-01  8.00000000E-01
  1.50000000E+00  1.50000000E+00  8.00000000E-01  8.00000000E-01  1.50000000E+00
  1.50000000E+00  8.00000000E-01  8.00000000E-01  1.50000000E+00  1.50000000E+00
  8.00000000E-01  8.00000000E-01  1.50000000E+00  1.50000000E+00  8.00000000E-01
  8.00000000E-01  1.50000000E+00  1.50000000E+00  8.00000000E-01  8.00000000E-01
  1.50000000E+00  1.50000000E+00  8.00000000E-01  8.00000000E-01  1.50000000E+00
  1.50000000E+00  8.00000000E-01  8.00000000E-01  1.50000000E+00  1.50000000E+00
  8.00000000E-01  8.00000000E-01  1.50000000E+00  1.50000000E+00  8.00000000E-01
  8.00000000E-01  1.50000000E+00  1.50000000E+00  8.00000000E-01  8.00000000E-01
  1.50000000E+00  1.50000000E+00  8.00000000E-01  8.00000000E-01  1.50000000E+00
  1.50000000E+00  8.00000000E-01  8.00000000E-01  1.50000000E+00  1.50000000E+00
  8.00000000E-01  8.00000000E-01  1.50000000E+00  1.50000000E+00  8.00000000E-01
  8.00000000E-01  1.50000000E+00  1.50000000E+00  8.00000000E-01  8.00000000E-01
  1.50000000E+00  1.50000000E+00  8.00000000E-01  8.00000000E-01  1.50000000E+00
  1.50000000E+00  8.00000000E-01  8.00000000E-01  1.50000000E+00  1.50000000E+00
  8.00000000E-01  8.00000000E-01  1.50000000E+00  1.50000000E+00  8.00000000E-01
  8.00000000E-01  1.50000000E+00  1.50000000E+00  8.00000000E-01  8.00000000E-01
  1.50000000E+00  1.50000000E+00  8.00000000E-01  8.00000000E-01  1.50000000E+00
  1.50000000E+00  8.00000000E-01  8.00000000E-01  1.50000000E+00  1.50000000E+00
  8.00000000E-01  8.00000000E-01  1.50000000E+00  1.50000000E+00  8.00000000E-01
  8.00000000E-01  1.50000000E+00  1.50000000E+00  8.00000000E-01  8.00000000E-01
  1.50000000E+00  1.50000000E+00  8.00000000E-01  8.00000000E-01  1.50000000E+00
  1.50000000E+00  8.00000000E-01  8.00000000E-01  1.50000000E+00  1.50000000E+00
  8.00000000E-01  8.00000000E-01  1.50000000E+00  1.50000000E+00  8.00000000E-01
  8.00000000E-01  1.50000000E+00  1.50000000E+00  8.00000000E-01  8.00000000E-01
  1.50000000E+00  1.50000000E+00  8.00000000E-01  8.00000000E-01  1.50000000E+00
  1.50000000E+00  8.00000000E-01  8.00000000E-01  1.50000000E+00  1.50000000E+00
  8.00000000E-01  8.00000000E-01  1.50000000E+00  1.50000000E+00  8.00000000E-01
  8.00000000E-01  1.50000000E+00  1.50000000E+00  8.00000000E-01  8.00000000E-01
  1.50000000E+00  1.50000000E+00  8.00000000E-01  8.00000000E-01  1.50000000E+00
  1.50000000E+00  8.00000000E-01  8.00000000E-01  1.50000000E+00  1.50000000E+00
  8.00000000E-01  8.00000000E-01  1.50000000E+00  1.50000000E+00  8.00000000E-01
  8.00000000E-01  1.50000000E+00  1.50000000E+00  8.00000000E-01  8.00000000E-01
  1.50000000E+00  1.50000000E+00  8.00000000E-01  8.00000000E-01  1.50000000E+00
  1.50000000E+00  8.00000000E-01  8.00000000E-01  1.50000000E+00  1.50000000E+00
  8.00000000E-01  8.00000000E-01  1.50000000E+00  1.50000000E+00  8.00000000E-01
  8.00000000E-01  1.50000000E+00  1.50000000E+00  8.00000000E-01  8.00000000E-01
  1.50000000E+00  1.50000000E+00  8.00000000E-01  8.00000000E-01  1.50000000E+00
  1.50000000E+00  8.00000000E-01  8.00000000E-01  1.50000000E+00  1.50000000E+00
  8.00000000E-01  8.00000000E-01  1.50000000E+00  1.50000000E+00  8.00000000E-01
  8.00000000E-01  1.50000000E+00  1.50000000E+00  8.00000000E-01  8.00000000E-01
  1.50000000E+00  1.50000000E+00  8.00000000E-01  8.00000000E-01  1.50000000E+00
  1.50000000E+00  8.00000000E-01  8.00000000E-01  1.50000000E+00  1.50000000E+00
  8.00000000E-01  8.00000000E-01  1.50000000E+00  1.50000000E+00  8.00000000E-01
  8.00000000E-01  1.50000000E+00  1.50000000E+00  8.00000000E-01  8.00000000E-01
  1.50000000E+00  1.50000000E+00  8.00000000E-01  8.00000000E-01  1.50000000E+00
  1.50000000E+00  8.00000000E-01  8.00000000E-01  1.50000000E+00  1.50000000E+00
  8.00000000E-01  8.00000000E-01  1.50000000E+00  1.50000000E+00  8.00000000E-01
  8.00000000E-01  1.50000000E+00  1.50000000E+00  8.00000000E-01  8.00000000E-01
  1.50000000E+00  1.50000000E+00  8.00000000E-01  8.00000000E-01  1.50000000E+00
  1.50000000E+00  8.00000000E-01  8.00000000E-01  1.50000000E+00  1.50000000E+00
  8.00000000E-01  8.00000000E-01  1.50000000E+00  1.50000000E+00  8.00000000E-01
  8.00000000E-01  1.50000000E+00  1.50000000E+00  8.00000000E-01  8.00000000E-01
  1.50000000E+00  1.50000000E+00  8.00000000E-01  8.00000000E-01  1.50000000E+00
  1.50000000E+00  8.00000000E-01  8.00000000E-01  1.50000000E+00  1.50000000E+00
  8.00000000E-01  8.00000000E-01  1.50000000E+00  1.50000000E+00  8.00000000E-01
  8.00000000E-01  1.50000000E+00  1.50000000E+00  8.00000000E-01  8.00000000E-01
  1.50000000E+00  1.50000000E+00  8.00000000E-01  8.00000000E-01  1.50000000E+00
  1.50000000E+00  8.00000000E-01  8.00000000E-01  1.50000000E+00  1.50000000E+00
  8.00000000E-01  8.00000000E-01  1.50000000E+00  1.50000000E+00  8.00000000E-01
  8.00000000E-01  1.50000000E+00  1.50000000E+00  8.00000000E-01  8.00000000E-01
  1.50000000E+00  1.50000000E+00  8.00000000E-01  8.00000000E-01  1.50000000E+00
  1.50000000E+00  8.00000000E-01  8.00000000E-01  1.50000000E+00  1.50000000E+00
  8.00000000E-01  8.00000000E-01  1.50000000E+00  1.50000000E+00  8.00000000E-01
  8.00000000E-01  1.50000000E+00  1.50000000E+00  8.00000000E-01  8.00000000E-01
  1.50000000E+00  1.50000000E+00  8.00000000E-01  8.00000000E-01  1.50000000E+00
  1.50000000E+00  8.00000000E-01  8.00000000E-01  1.50000000E+00  1.50000000E+00
  8.00000000E-01  8.00000000E-01  1.50000000E+00  1.50000000E+00  8.00000000E-01
  8.00000000E-01  1.50000000E+00  1.50000000E+00  8.00000000E-01  8.00000000E-01
  1.50000000E+00  1.50000000E+00  8.00000000E-01  8.00000000E-01  1.50000000E+00
  1.50000000E+00  8.00000000E-01  8.00000000E-01  1.50000000E+00  1.50000000E+00
  8.00000000E-01  8.00000000E-01  1.50000000E+00  1.50000000E+00  8.00000000E-01
  8.00000000E-01  1.50000000E+00  1.50000000E+00  8.00000000E-01  8.00000000E-01
  1.50000000E+00  1.50000000E+00  8.00000000E-01  8.00000000E-01  1.50000000E+00
  1.50000000E+00  8.00000000E-01  8.00000000E-01  1.50000000E+00  1.50000000E+00
  8.00000000E-01  8.00000000E-01  1.50000000E+00  1.50000000E+00  8.00000000E-01
  8.00000000E-01  1.50000000E+00  1.50000000E+00  8.00000000E-01  8.00000000E-01
  1.50000000E+00  1.50000000E+00  8.00000000E-01  8.00000000E-01  1.50000000E+00
  1.50000000E+00  8.00000000E-01  8.00000000E-01  1.50000000E+00  1.50000000E+00
  8.00000000E-01  8.00000000E-01  1.50000000E+00  1.50000000E+00  8.00000000E-01
  8.00000000E-01  1.50000000E+00  1.50000000E+00  8.00000000E-01  8.00000000E-01
  1.50000000E+00  1.50000000E+00  8.00000000E-01  8.00000000E-01  1.50000000E+00
  1.50000000E+00  8.00000000E-01  8.00000000E-01  1.50000000E+00  1.50000000E+00
  8.00000000E-01  8.00000000E-01  1.50000000E+00  1.50000000E+00  8.00000000E-01
  8.00000000E-01  1.50000000E+00  1.50000000E+00  8.00000000E-01  8.00000000E-01
  1.50000000E+00  1.50000000E+00  8.00000000E-01  8.00000000E-01  1.50000000E+00
  1.50000000E+00  8.00000000E-01  8.00000000E-01  1.50000000E+00  1.50000000E+00
  8.00000000E-01  8.00000000E-01  1.50000000E+00  1.50000000E+00  8.00000000E-01
  8.00000000E-01  1.50000000E+00  1.50000000E+00  8.00000000E-01  8.00000000E-01
  1.50000000E+00  1.50000000E+00  8.00000000E-01  8.00000000E-01  1.50000000E+00
  1.50000000E+00  8.00000000E-01  8.00000000E-01  1.50000000E+00  1.50000000E+00
  8.00000000E-01  8.00000000E-01  1.50000000E+00  1.50000000E+00  8.00000000E-01
  8.00000000E-01  1.50000000E+00  1.50000000E+00  8.00000000E-01  8.00000000E-01
  1.50000000E+00  1.50000000E+00  8.00000000E-01  8.00000000E-01  1.50000000E+00
  1.50000000E+00  8.00000000E-01  8.00000000E-01  1.50000000E+00  1.50000000E+00
  8.00000000E-01  8.00000000E-01  1.50000000E+00  1.50000000E+00  8.00000000E-01
  8.00000000E-01  1.50000000E+00  1.50000000E+00  8.00000000E-01  8.00000000E-01
  1.50000000E+00  1.50000000E+00  8.00000000E-01  8.00000000E-01  1.50000000E+00
  1.50000000E+00  8.00000000E-01  8.00000000E-01  1.50000000E+00  1.50000000E+00
  8.00000000E-01  8.00000000E-01  1.50000000E+00  1.50000000E+00  8.00000000E-01
  8.00000000E-01  1.50000000E+00  1.50000000E+00  8.00000000E-01  8.00000000E-01
  1.50000000E+00  1.50000000E+00  8.00000000E-01  8.00000000E-01  1.50000000E+00
  1.50000000E+00  8.00000000E-01  8.00000000E-01  1.50000000E+00  1.50000000E+00
  8.00000000E-01  8.00000000E-01  1.50000000E+00  1.50000000E+00  8.00000000E-01
  8.00000000E-01  1.50000000E+00  1.50000000E+00  8.00000000E-01  8.00000000E-01
  1.50000000E+00  1.50000000E+00  8.00000000E-01  8.00000000E-01  1.50000000E+00
  1.50000000E+00  8.00000000E-01  8.00000000E-01  1.50000000E+00  1.50000000E+00
  8.00000000E-01  8.00000000E-01  1.50000000E+00  1.50000000E+00  8.00000000E-01
  8.00000000E-01  1.50000000E+00  1.50000000E+00  8.00000000E-01  8.00000000E-01
  1.50000000E+00  1.50000000E+00  8.00000000E-01  8.00000000E-01  1.50000000E+00
  1.50000000E+00  8.00000000E-01  8.00000000E-01  1.50000000E+00  1.50000000E+00
  8.00000000E-01  8.00000000E-01  1.50000000E+00  1.50000000E+00  8.00000000E-01
  8.00000000E-01  1.50000000E+00  1.50000000E+00  8.00000000E-01  8.00000000E-01
  1.50000000E+00  1.50000000E+00  8.00000000E-01  8.00000000E-01  1.50000000E+00
  1.50000000E+00  8.00000000E-01  8.00000000E-01  1.50000000E+00  1.50000000E+00
  8.00000000E-01  8.00000000E-01  1.50000000E+00  1.50000000E+00  8.00000000E-01
  8.00000000E-01  1.50000000E+00  1.50000000E+00  8.00000000E-01  8.00000000E-01
  1.50000000E+00  1.50000000E+00  8.00000000E-01  8.00000000E-01  1.50000000E+00
  1.50000000E+00  8.00000000E-01  8.00000000E-01  1.50000000E+00  1.50000000E+00
  8.00000000E-01  8.00000000E-01  1.50000000E+00  1.50000000E+00  8.00000000E-01
  8.00000000E-01  1.50000000E+00  1.50000000E+00  8.00000000E-01  8.00000000E-01
  1.50000000E+00  1.50000000E+00  8.00000000E-01  8.00000000E-01  1.50000000E+00
  1.50000000E+00  8.00000000E-01  8.00000000E-01  1.50000000E+00  1.50000000E+00
  8.00000000E-01  8.00000000E-01  1.50000000E+00  1.50000000E+00  8.00000000E-01
  8.00000000E-01  1.50000000E+00  1.50000000E+00  8.00000000E-01  8.00000000E-01
  1.50000000E+00  1.50000000E+00  8.00000000E-01  8.00000000E-01  1.50000000E+00
  1.50000000E+00  8.00000000E-01  8.00000000E-01  1.50000000E+00  1.50000000E+00
  8.00000000E-01  8.00000000E-01  1.50000000E+00  1.50000000E+00  8.00000000E-01
  8.00000000E-01  1.50000000E+00  1.50000000E+00  8.00000000E-01  8.00000000E-01
  1.50000000E+00  1.50000000E+00  8.00000000E-01  8.00000000E-01  1.50000000E+00
  1.50000000E+00  8.00000000E-01  8.00000000E-01  1.50000000E+00  1.50000000E+00
  8.00000000E-01  8.00000000E-01  1.50000000E+00  1.50000000E+00  8.00000000E-01
  8.00000000E-01  1.50000000E+00  1.50000000E+00  8.00000000E-01  8.00000000E-01
  1.50000000E+00  1.50000000E+00  8.00000000E-01  8.00000000E-01  1.50000000E+00
  1.50000000E+00  8.00000000E-01  8.00000000E-01  1.50000000E+00  1.50000000E+00
  8.00000000E-01  8.00000000E-01  1.50000000E+00  1.50000000E+00  8.00000000E-01
  8.00000000E-01  1.50000000E+00  1.50000000E+00  8.00000000E-01  8.00000000E-01
  1.50000000E+00  1.50000000E+00  8.00000000E-01  8.00000000E-01  1.50000000E+00
  1.50000000E+00  8.00000000E-01  8.00000000E-01  1.50000000E+00  1.50000000E+00
  8.00000000E-01  8.00000000E-01  1.50000000E+00  1.50000000E+00  8.00000000E-01
  8.00000000E-01  1.50000000E+00  1.50000000E+00  8.00000000E-01  8.00000000E-01
  1.50000000E+00  1.50000000E+00  8.00000000E-01  8.00000000E-01  1.50000000E+00
  1.50000000E+00  8.00000000E-01  8.00000000E-01  1.50000000E+00  1.50000000E+00
  8.00000000E-01  8.00000000E-01  1.50000000E+00  1.50000000E+00  8.00000000E-01
  8.00000000E-01  1.50000000E+00  1.50000000E+00  8.00000000E-01  8.00000000E-01
  1.50000000E+00  1.50000000E+00  8.00000000E-01  8.00000000E-01  1.50000000E+00
  1.50000000E+00  8.00000000E-01  8.00000000E-01  1.50000000E+00  1.50000000E+00
  8.00000000E-01  8.00000000E-01  1.50000000E+00  1.50000000E+00  8.00000000E-01
  8.00000000E-01  1.50000000E+00  1.50000000E+00  8.00000000E-01  8.00000000E-01
  1.50000000E+00  1.50000000E+00  8.00000000E-01  8.00000000E-01  1.50000000E+00
  1.50000000E+00  8.00000000E-01  8.00000000E-01  1.50000000E+00  1.50000000E+00
  8.00000000E-01  8.00000000E-01  1.50000000E+00  1.50000000E+00  8.00000000E-01
  8.00000000E-01  1.50000000E+00  1.50000000E+00  8.00000000E-01  8.00000000E-01
  1.50000000E+00  1.50000000E+00  8.00000000E-01  8.00000000E-01  1.50000000E+00
  1.50000000E+00  8.00000000E-01  8.00000000E-01  1.50000000E+00  1.50000000E+00
  8.00000000E-01  8.00000000E-01  1.50000000E+00  1.50000000E+00  8.00000000E-01
  8.00000000E-01  1.50000000E+00  1.50000000E+00  8.00000000E-01  8.00000000E-01
  1.50000000E+00  1.50000000E+00  8.00000000E-01  8.00000000E-01  1.50000000E+00
  1.50000000E+00  8.00000000E-01  8.00000000E-01  1.50000000E+00  1.50000000E+00
  8.00000000E-01  8.00000000E-01  1.50000000E+00  1.50000000E+00  8.00000000E-01
  8.00000000E-01  1.50000000E+00  1.50000000E+00  8.00000000E-01  8.00000000E-01
  1.50000000E+00  1.50000000E+00  8.00000000E-01  8.00000000E-01  1.50000000E+00
  1.50000000E+00  8.00000000E-01  8.00000000E-01  1.50000000E+00  1.50000000E+00
  8.00000000E-01  8.00000000E-01  1.50000000E+00  1.50000000E+00  8.00000000E-01
  8.00000000E-01  1.50000000E+00  1.50000000E+00  8.00000000E-01  8.00000000E-01
  1.50000000E+00  1.50000000E+00  8.00000000E-01  8.00000000E-01  1.50000000E+00
  1.50000000E+00  8.00000000E-01  8.00000000E-01  1.50000000E+00  1.50000000E+00
  8.00000000E-01  8.00000000E-01  1.50000000E+00  1.50000000E+00  8.00000000E-01
  8.00000000E-01  1.50000000E+00  1.50000000E+00  8.00000000E-01  8.00000000E-01
  1.50000000E+00  1.50000000E+00  8.00000000E-01  8.00000000E-01  1.50000000E+00
  1.50000000E+00  8.00000000E-01  8.00000000E-01  1.50000000E+00  1.50000000E+00
  8.00000000E-01  8.00000000E-01  1.50000000E+00  1.50000000E+00  8.00000000E-01
  8.00000000E-01  1.50000000E+00  1.50000000E+00  8.00000000E-01  8.00000000E-01
  1.50000000E+00  1.50000000E+00  8.00000000E-01  8.00000000E-01  1.50000000E+00
  1.50000000E+00  8.00000000E-01  8.00000000E-01  1.50000000E+00  1.50000000E+00
  8.00000000E-01  8.00000000E-01  1.50000000E+00  1.50000000E+00  8.00000000E-01
  8.00000000E-01  1.50000000E+00  1.50000000E+00  8.00000000E-01  8.00000000E-01
  1.50000000E+00  1.50000000E+00  8.00000000E-01  8.00000000E-01  1.50000000E+00
  1.50000000E+00  8.00000000E-01  8.00000000E-01  1.50000000E+00  1.50000000E+00
  8.00000000E-01  8.00000000E-01  1.50000000E+00  1.50000000E+00  8.00000000E-01
  8.00000000E-01  1.50000000E+00  1.50000000E+00  8.00000000E-01  8.00000000E-01
  1.50000000E+00  1.50000000E+00  8.00000000E-01  8.00000000E-01  1.50000000E+00
  1.50000000E+00  8.00000000E-01  8.00000000E-01  1.50000000E+00  1.50000000E+00
  8.00000000E-01  8.00000000E-01  1.50000000E+00  1.50000000E+00  8.00000000E-01
  8.00000000E-01  1.50000000E+00  1.50000000E+00  8.00000000E-01  8.00000000E-01
  1.50000000E+00  1.50000000E+00  8.00000000E-01  8.00000000E-01  1.50000000E+00
  1.50000000E+00  8.00000000E-01  8.00000000E-01  1.50000000E+00  1.50000000E+00
  8.00000000E-01  8.00000000E-01  1.50000000E+00  1.50000000E+00  8.00000000E-01
  8.00000000E-01  1.50000000E+00  1.50000000E+00  8.00000000E-01  8.00000000E-01
  1.50000000E+00  1.50000000E+00  8.00000000E-01  8.00000000E-01  1.50000000E+00
  1.50000000E+00  8.00000000E-01  8.00000000E-01  1.50000000E+00  1.50000000E+00
  8.00000000E-01  8.00000000E-01  1.50000000E+00  1.50000000E+00  8.00000000E-01
  8.00000000E-01  1.50000000E+00  1.50000000E+00  8.00000000E-01  8.00000000E-01
  1.50000000E+00  1.50000000E+00  8.00000000E-01  8.00000000E-01  1.50000000E+00
%FLAG SCREEN                                                                    
%FORMAT(5E16.8)                                                                 
  7.90000000E-01  8.50000000E-01  8.50000000E-01  8.50000000E-01  7.20000000E-01
  8.50000000E-01  7.20000000E-01  8.50000000E-01  8.50000000E-01  8.50000000E-01
  7.20000000E-01  8.50000000E-01  7.90000000E-01  8.50000000E-01  7.20000000E-01
  8.50000000E-01  7.20000000E-01  8.50000000E-01  8.50000000E-01  8.50000000E-01
  7.20000000E-01  8.50000000E-01  7.90000000E-01  8.50000000E-01  7.20000000E-01
  8.50000000E-01  7.20000000E-01  8.50000000E-01  8.50000000E-01  8.50000000E-01
  7.20000000E-01  8.50000000E-01  8.50000000E-01  8.50000000E-01  8.50000000E-01
  8.50000000E-01  8.00000000E-01  8.50000000E-01  8.50000000E-01  8.50000000E-01
  8.00000000E-01  8.50000000E-01  8.50000000E-01  8.50000000E-01  8.00000000E-01
  8.50000000E-01  8.50000000E-01  8.50000000E-01  8.00000000E-01  8.50000000E-01
  8.50000000E-01  8.50000000E-01  8.00000000E-01  8.50000000E-01  8.50000000E-01
  8.50000000E-01  8.00000000E-01  8.50000000E-01  8.50000000E-01  8.50000000E-01
  8.00000000E-01  8.50000000E-01  8.50000000E-01  8.50000000E-01  8.00000000E-01
  8.50000000E-01  8.50000000E-01  8.50000000E-01  8.00000000E-01  8.50000000E-01
  8.50000000E-01  8.50000000E-01  8.00000000E-01  8.50000000E-01  8.50000000E-01
  8.50000000E-01  8.00000000E-01  8.50000000E-01  8.50000000E-01  8.50000000E-01
  8.00000000E-01  8.50000000E-01  8.50000000E-01  8.50000000E-01  8.00000000E-01
  8.50000000E-01  8.50000000E-01  8.50000000E-01  8.00000000E-01  8.50000000E-01
  8.50000000E-01  8.50000000E-01  8.00000000E-01  8.50000000E-01  8.50000000E-01
  8.50000000E-01  8.00000000E-01  8.50000000E-01  8.50000000E-01  8.50000000E-01
  8.00000000E-01  8.50000000E-01  8.50000000E-01  8.50000000E-01  8.00000000E-01
  8.50000000E-01  8.50000000E-01  8.50000000E-01  8.00000000E-01  8.50000000E-01
  8.50000000E-01  8.50000000E-01  8.00000000E-01  8.50000000E-01  8.50000000E-01
  8.50000000E-01  8.00000000E-01  8.50000000E-01  8.50000000E-01  8.50000000E-01
  8.00000000E-01  8.50000000E-01  8.50000000E-01  8.50000000E-01  8.00000000E-01
  8.50000000E-01  8.50000000E-01  8.50000000E-01  8.00000000E-01  8.50000000E-01
  8.50000000E-01  8.50000000E-01  8.00000000E-01  8.50000000E-01  8.50000000E-01
  8.50000000E-01  8.00000000E-01  8.50000000E-01  8.50000000E-01  8.50000000E-01
  8.00000000E-01  8.50000000E-01  8.50000000E-01  8.50000000E-01  8.00000000E-01
  8.50000000E-01  8.50000000E-01  8.50000000E-01  8.00000000E-01  8.50000000E-01
  8.50000000E-01  8.50000000E-01  8.00000000E-01  8.50000000E-01  8.50000000E-01
  8.50000000E-01  8.00000000E-01  8.50000000E-01  8.50000000E-01  8.50000000E-01
  8.00000000E-01  8.50000000E-01  8.50000000E-01  8.50000000E-01  8.00000000E-01
  8.50000000E-01  8.50000000E-01  8.50000000E-01  8.00000000E-01  8.50000000E-01
  8.50000000E-01  8.50000000E-01  8.00000000E-01  8.50000000E-01  8.50000000E-01
  8.50000000E-01  8.00000000E-01  8.50000000E-01  8.50000000E-01  8.50000000E-01
  8.00000000E-01  8.50000000E-01  8.50000000E-01  8.50000000E-01  8.00000000E-01
  8.50000000E-01  8.50000000E-01  8.50000000E-01  8.00000000E-01  8.50000000E-01
  8.50000000E-01  8.50000000E-01  8.00000000E-01  8.50000000E-01  8.50000000E-01
  8.50000000E-01  8.00000000E-01  8.50000000E-01  8.50000000E-01  8.50000000E-01
  8.00000000E-01  8.50000000E-01  8.50000000E-01  8.50000000E-01  8.00000000E-01
  8.50000000E-01  8.50000000E-01  8.50000000E-01  8.00000000E-01  8.50000000E-01
  8.50000000E-01  8.50000000E-01  8.00000000E-01  8.50000000E-01  8.50000000E-01
  8.50000000E-01  8.00000000E-01  8.50000000E-01  8.50000000E-01  8.50000000E-01
  8.00000000E-01  8.50000000E-01  8.50000000E-01  8.50000000E-01  8.00000000E-01
  8.50000000E-01  8.50000000E-01  8.50000000E-01  8.00000000E-01  8.50000000E-01
  8.50000000E-01  8.50000000E-01  8.00000000E-01  8.50000000E-01  8.50000000E-01
  8.50000000E-01  8.00000000E-01  8.50000000E-01  8.50000000E-01  8.50000000E-01
  8.00000000E-01  8.50000000E-01  8.50000000E-01  8.50000000E-01  8.00000000E-01
  8.50000000E-01  8.50000000E-01  8.50000000E-01  8.00000000E-01  8.50000000E-01
  8.50000000E-01  8.50000000E-01  8.00000000E-01  8.50000000E-01  8.50000000E-01
  8.50000000E-01  8.00000000E-01  8.50000000E-01  8.50000000E-01  8.50000000E-01
  8.00000000E-01  8.50000000E-01  8.50000000E-01  8.50000000E-01  8.00000000E-01
  8.50000000E-01  8.50000000E-01  8.50000000E-01  8.00000000E-01  8.50000000E-01
  8.50000000E-01  8.50000000E-01  8.00000000E-01  8.50000000E-01  8.50000000E-01
  8.50000000E-01  8.00000000E-01  8.50000000E-01  8.50000000E-01  8.50000000E-01
  8.00000000E-01  8.50000000E-01  8.50000000E-01  8.50000000E-01  8.00000000E-01
  8.50000000E-01  8.50000000E-01  8.50000000E-01  8.00000000E-01  8.50000000E-01
  8.50000000E-01  8.50000000E-01  8.00000000E-01  8.50000000E-01  8.50000000E-01
  8.50000000E-01  8.00000000E-01  8.50000000E-01  8.50000000E-01  8.50000000E-01
  8.00000000E-01  8.50000000E-01  8.50000000E-01  8.50000000E-01  8.00000000E-01
  8.50000000E-01  8.50000000E-01  8.50000000E-01  8.00000000E-01  8.50000000E-01
  8.50000000E-01  8.50000000E-01  8.00000000E-01  8.50000000E-01  8.50000000E-01
  8.50000000E-01  8.00000000E-01  8.50000000E-01  8.50000000E-01  8.50000000E-01
  8.00000000E-01  8.50000000E-01  8.50000000E-01  8.50000000E-01  8.00000000E-01
  8.50000000E-01  8.50000000E-01  8.50000000E-01  8.00000000E-01  8.50000000E-01
  8.50000000E-01  8.50000000E-01  8.00000000E-01  8.50000000E-01  8.50000000E-01
  8.50000000E-01  8.00000000E-01  8.50000000E-01  8.50000000E-01  8.50000000E-01
  8.00000000E-01  8.50000000E-01  8.50000000E-01  8.50000000E-01  8.00000000E-01
  8.50000000E-01  8.50000000E-01  8.50000000E-01  8.00000000E-01  8.50000000E-01
  8.50000000E-01  8.50000000E-01  8.00000000E-01  8.50000000E-01  8.50000000E-01
  8.50000000E-01  8.00000000E-01  8.50000000E-01  8.50000000E-01  8.50000000E-01
  8.00000000E-01  8.50000000E-01  8.50000000E-01  8.50000000E-01  8.00000000E-01
  8.50000000E-01  8.50000000E-01  8.50000000E-01  8.00000000E-01  8.50000000E-01
  8.50000000E-01  8.50000000E-01  8.00000000E-01  8.50000000E-01  8.50000000E-01
  8.50000000E-01  8.00000000E-01  8.50000000E-01  8.50000000E-01  8.50000000E-01
  8.00000000E-01  8.50000000E-01  8.50000000E-01  8.50000000E-01  8.00000000E-01
  8.50000000E-01  8.50000000E-01  8.50000000E-01  8.00000000E-01  8.50000000E-01
  8.50000000E-01  8.50000000E-01  8.00000000E-01  8.50000000E-01  8.50000000E-01
  8.50000000E-01  8.00000000E-01  8.50000000E-01  8.50000000E-01  8.50000000E-01
  8.00000000E-01  8.50000000E-01  8.50000000E-01  8.50000000E-01  8.00000000E-01
  8.50000000E-01  8.50000000E-01  8.50000000E-01  8.00000000E-01  8.50000000E-01
  8.50000000E-01  8.50000000E-01  8.00000000E-01  8.50000000E-01  8.50000000E-01
  8.50000000E-01  8.00000000E-01  8.50000000E-01  8.50000000E-01  8.50000000E-01
  8.00000000E-01  8.50000000E-01  8.50000000E-01  8.50000000E-01  8.00000000E-01
  8.50000000E-01  8.50000000E-01  8.50000000E-01  8.00000000E-01  8.50000000E-01
  8.50000000E-01  8.50000000E-01  8.00000000E-01  8.50000000E-01  8.50000000E-01
  8.50000000E-01  8.00000000E-01  8.50000000E-01  8.50000000E-01  8.50000000E-01
  8.00000000E-01  8.50000000E-01  8.50000000E-01  8.50000000E-01  8.00000000E-01
  8.50000000E-01  8.50000000E-01  8.50000000E-01  8.00000000E-01  8.50000000E-01
  8.50000000E-01  8.50000000E-01  8.00000000E-01  8.50000000E-01  8.50000000E-01
  8.50000000E-01  8.00000000E-01  8.50000000E-01  8.50000000E-01  8.50000000E-01
  8.00000000E-01  8.50000000E-01  8.50000000E-01  8.50000000E-01  8.00000000E-01
  8.50000000E-01  8.50000000E-01  8.50000000E-01  8.00000000E-01  8.50000000E-01
  8.50000000E-01  8.50000000E-01  8.00000000E-01  8.50000000E-01  8.50000000E-01
  8.50000000E-01  8.00000000E-01  8.50000000E-01  8.50000000E-01  8.50000000E-01
  8.00000000E-01  8.50000000E-01  8.50000000E-01  8.50000000E-01  8.00000000E-01
  8.50000000E-01  8.50000000E-01  8.50000000E-01  8.00000000E-01  8.50000000E-01
  8.50000000E-01  8.50000000E-01  8.00000000E-01  8.50000000E-01  8.50000000E-01
  8.50000000E-01  8.00000000E-01  8.50000000E-01  8.50000000E-01  8.50000000E-01
  8.00000000E-01  8.50000000E-01  8.50000000E-01  8.50000000E-01  8.00000000E-01
  8.50000000E-01  8.50000000E-01  8.50000000E-01  8.00000000E-01  8.50000000E-01
  8.50000000E-01  8.50000000E-01  8.00000000E-01  8.50000000E-01  8.50000000E-01
  8.50000000E-01  8.00000000E-01  8.50000000E-01  8.50000000E-01  8.50000000E-01
  8.00000000E-01  8.50000000E-01  8.50000000E-01  8.50000000E-01  8.00000000E-01
  8.50000000E-01  8.50000000E-01  8.50000000E-01  8.00000000E-01  8.50000000E-01
  8.50000000E-01  8.50000000E-01  8.00000000E-01  8.50000000E-01  8.50000000E-01
  8.50000000E-01  8.00000000E-01  8.50000000E-01  8.50000000E-01  8.50000000E-01
  8.00000000E-01  8.50000000E-01  8.50000000E-01  8.50000000E-01  8.00000000E-01
  8.50000000E-01  8.50000000E-01  8.50000000E-01  8.00000000E-01  8.50000000E-01
  8.50000000E-01  8.50000000E-01  8.00000000E-01  8.50000000E-01  8.50000000E-01
  8.50000000E-01  8.00000000E-01  8.50000000E-01  8.50000000E-01  8.50000000E-01
  8.00000000E-01  8.50000000E-01  8.50000000E-01  8.50000000E-01  8.00000000E-01
  8.50000000E-01  8.50000000E-01  8.50000000E-01  8.00000000E-01  8.50000000E-01
  8.50000000E-01  8.50000000E-01  8.00000000E-01  8.50000000E-01  8.50000000E-01
  8.50000000E-01  8.00000000E-01  8.50000000E-01  8.50000000E-01  8.50000000E-01
  8.00000000E-01  8.50000000E-01  8.50000000E-01  8.50000000E-01  8.00000000E-01
  8.50000000E-01  8.50000000E-01  8.50000000E-01  8.00000000E-01  8.50000000E-01
  8.50000000E-01  8.50000000E-01  8.00000000E-01  8.50000000E-01  8.50000000E-01
  8.50000000E-01  8.00000000E-01  8.50000000E-01  8.50000000E-01  8.50000000E-01
  8.00000000E-01  8.50000000E-01  8.50000000E-01  8.50000000E-01  8.00000000E-01
  8.50000000E-01  8.50000000E-01  8.50000000E-01  8.00000000E-01  8.50000000E-01
  8.50000000E-01  8.50000000E-01  8.00000000E-01  8.50000000E-01  8.50000000E-01
  8.50000000E-01  8.00000000E-01  8.50000000E-01  8.50000000E-01  8.50000000E-01
  8.00000000E-01  8.50000000E-01  8.50000000E-01  8.50000000E-01  8.00000000E-01
  8.50000000E-01  8.50000000E-01  8.50000000E-01  8.00000000E-01  8.50000000E-01
  8.50000000E-01  8.50000000E-01  8.00000000E-01  8.50000000E-01  8.50000000E-01
  8.50000000E-01  8.00000000E-01  8.50000000E-01  8.50000000E-01  8.50000000E-01
  8.00000000E-01  8.50000000E-01  8.50000000E-01  8.50000000E-01  8.00000000E-01
  8.50000000E-01  8.50000000E-01  8.50000000E-01  8.00000000E-01  8.50000000E-01
  8.50000000E-01  8.50000000E-01  8.00000000E-01  8.50000000E-01  8.50000000E-01
  8.50000000E-01  8.00000000E-01  8.50000000E-01  8.50000000E-01  8.50000000E-01
  8.00000000E-01  8.50000000E-01  8.50000000E-01  8.50000000E-01  8.00000000E-01
  8.50000000E-01  8.50000000E-01  8.50000000E-01  8.00000000E-01  8.50000000E-01
  8.50000000E-01  8.50000000E-01  8.00000000E-01  8.50000000E-01  8.50000000E-01
  8.50000000E-01  8.00000000E-01  8.50000000E-01  8.50000000E-01  8.50000000E-01
  8.00000000E-01  8.50000000E-01  8.50000000E-01  8.50000000E-01  8.00000000E-01
  8.50000000E-01  8.50000000E-01  8.50000000E-01  8.00000000E-01  8.50000000E-01
  8.50000000E-01  8.50000000E-01  8.00000000E-01  8.50000000E-01  8.50000000E-01
  8.50000000E-01  8.00000000E-01  8.50000000E-01  8.50000000E-01  8.50000000E-01
  8.00000000E-01  8.50000000E-01  8.50000000E-01  8.50000000E-01  8.00000000E-01
  8.50000000E-01  8.50000000E-01  8.50000000E-01  8.00000000E-01  8.50000000E-01
  8.50000000E-01  8.50000000E-01  8.00000000E-01  8.50000000E-01  8.50000000E-01
  8.50000000E-01  8.00000000E-01  8.50000000E-01  8.50000000E-01  8.50000000E-01
  8.00000000E-01  8.50000000E-01  8.50000000E-01  8.50000000E-01  8.00000000E-01
  8.50000000E-01  8.50000000E-01  8.50000000E-01  8.00000000E-01  8.50000000E-01
  8.50000000E-01  8.50000000E-01  8.00000000E-01  8.50000000E-01  8.50000000E-01
  8.50000000E-01  8.00000000E-01  8.50000000E-01  8.50000000E-01  8.50000000E-01
  8.00000000E-01  8.50000000E-01  8.50000000E-01  8.50000000E-01  8.00000000E-01
  8.50000000E-01  8.50000000E-01  8.50000000E-01  8.00000000E-01  8.50000000E-01
  8.50000000E-01  8.50000000E-01  8.00000000E-01  8.50000000E-01  8.50000000E-01
  8.50000000E-01  8.00000000E-01  8.50000000E-01  8.50000000E-01  8.50000000E-01
  8.00000000E-01  8.50000000E-01  8.50000000E-01  8.50000000E-01  8.00000000E-01
  8.50000000E-01  8.50000000E-01  8.50000000E-01  8.00000000E-01  8.50000000E-01
  8.50000000E-01  8.50000000E-01  8.00000000E-01  8.50000000E-01  8.50000000E-01
  8.50000000E-01  8.00000000E-01  8.50000000E-01  8.50000000E-01  8.50000000E-01
  8.00000000E-01  8.50000000E-01  8.50000000E-01  8.50000000E-01  8.00000000E-01
  8.50000000E-01  8.50000000E-01  8.50000000E-01  8.00000000E-01  8.50000000E-01
  8.50000000E-01  8.50000000E-01  8.00000000E-01  8.50000000E-01  8.50000000E-01
  8.50000000E-01  8.00000000E-01  8.50000000E-01  8.50000000E-01  8.50000000E-01
  8.00000000E-01  8.50000000E-01  8.50000000E-01  8.50000000E-01  8.00000000E-01
  8.50000000E-01  8.50000000E-01  8.50000000E-01  8.00000000E-01  8.50000000E-01
  8.50000000E-01  8.50000000E-01  8.00000000E-01  8.50000000E-01  8.50000000E-01
  8.50000000E-01  8.00000000E-01  8.50000000E-01  8.50000000E-01  8.50000000E-01
  8.00000000E-01  8.50000000E-01  8.50000000E-01  8.50000000E-01  8.00000000E-01
  8.50000000E-01  8.50000000E-01  8.50000000E-01  8.00000000E-01  8.50000000E-01
  8.50000000E-01  8.50000000E-01  8.00000000E-01  8.50000000E-01  8.50000000E-01
  8.50000000E-01  8.00000000E-01  8.50000000E-01  8.50000000E-01  8.50000000E-01
  8.00000000E-01  8.50000000E-01  8.50000000E-01  8.50000000E-01  8.00000000E-01
  8.50000000E-01  8.50000000E-01  8.50000000E-01  8.00000000E-01  8.50000000E-01
  8.50000000E-01  8.50000000E-01  8.00000000E-01  8.50000000E-01  8.50000000E-01
  8.50000000E-01  8.00000000E-01  8.50000000E-01  8.50000000E-01  8.50000000E-01
  8.00000000E-01  8.50000000E-01  8.50000000E-01  8.50000000E-01  8.00000000E-01
  8.50000000E-01  8.50000000E-01  8.50000000E-01  8.00000000E-01  8.50000000E-01
  8.50000000E-01  8.50000000E-01  8.00000000E-01  8.50000000E-01  8.50000000E-01
  8.50000000E-01  8.00000000E-01  8.50000000E-01  8.50000000E-01  8.50000000E-01
  8.00000000E-01  8.50000000E-01  8.50000000E-01  8.50000000E-01  8.00000000E-01
  8.50000000E-01  8.50000000E-01  8.50000000E-01  8.00000000E-01  8.50000000E-01
  8.50000000E-01  8.50000000E-01  8.00000000E-01  8.50000000E-01  8.50000000E-01
  8.50000000E-01  8.00000000E-01  8.50000000E-01  8.50000000E-01  8.50000000E-01
  8.00000000E-01  8.50000000E-01  8.50000000E-01  8.50000000E-01  8.00000000E-01
  8.50000000E-01  8.50000000E-01  8.50000000E-01  8.00000000E-01  8.50000000E-01
  8.50000000E-01  8.50000000E-01  8.00000000E-01  8.50000000E-01  8.50000000E-01
  8.50000000E-01  8.00000000E-01  8.50000000E-01  8.50000000E-01  8.50000000E-01
  8.00000000E-01  8.50000000E-01  8.50000000E-01  8.50000000E-01  8.00000000E-01
  8.50000000E-01  8.50000000E-01  8.50000000E-01  8.00000000E-01  8.50000000E-01
  8.50000000E-01  8.50000000E-01  8.00000000E-01  8.50000000E-01  8.50000000E-01
  8.50000000E-01  8.00000000E-01  8.50000000E-01  8.50000000E-01  8.50000000E-01
  8.00000000E-01  8.50000000E-01  8.50000000E-01  8.50000000E-01  8.00000000E-01
  8.50000000E-01  8.50000000E-01  8.50000000E-01  8.00000000E-01  8.50000000E-01
  8.50000000E-01  8.50000000E-01  8.00000000E-01  8.50000000E-01  8.50000000E-01
  8.50000000E-01  8.00000000E-01  8.50000000E-01  8.50000000E-01  8.50000000E-01
  8.00000000E-01  8.50000000E-01  8.50000000E-01  8.50000000E-01  8.00000000E-01
  8.50000000E-01  8.50000000E-01  8.50000000E-01  8.00000000E-01  8.50000000E-01
  8.50000000E-01  8.50000000E-01  8.00000000E-01  8.50000000E-01  8.50000000E-01
  8.50000000E-01  8.00000000E-01  8.50000000E-01  8.50000000E-01  8.50000000E-01
  8.00000000E-01  8.50000000E-01  8.50000000E-01  8.50000000E-01  8.00000000E-01
  8.50000000E-01  8.50000000E-01  8.50000000E-01  8.00000000E-01  8.50000000E-01
  8.50000000E-01  8.50000000E-01  8.00000000E-01  8.50000000E-01  8.50000000E-01
  8.50000000E-01  8.00000000E-01  8.50000000E-01  8.50000000E-01  8.50000000E-01
  8.00000000E-01  8.50000000E-01  8.50000000E-01  8.50000000E-01  8.00000000E-01
  8.50000000E-01  8.50000000E-01  8.50000000E-01  8.00000000E-01  8.50000000E-01
  8.50000000E-01  8.50000000E-01  8.00000000E-01  8.50000000E-01  8.50000000E-01
  8.50000000E-01  8.00000000E-01  8.50000000E-01  8.50000000E-01  8.50000000E-01
  8.00000000E-01  8.50000000E-01  8.50000000E-01  8.50000000E-01  8.00000000E-01
  8.50000000E-01  8.50000000E-01  8.50000000E-01  8.00000000E-01  8.50000000E-01
  8.50000000E-01  8.50000000E-01  8.00000000E-01  8.50000000E-01  8.50000000E-01
  8.50000000E-01  8.00000000E-01  8.50000000E-01  8.50000000E-01  8.50000000E-01
  8.00000000E-01  8.50000000E-01  8.50000000E-01  8.50000000E-01  8.00000000E-01
  8.50000000E-01  8.50000000E-01  8.50000000E-01  8.00000000E-01  8.50000000E-01
  8.50000000E-01  8.50000000E-01  8.00000000E-01  8.50000000E-01  8.50000000E-01
  8.50000000E-01  8.00000000E-01  8.50000000E-01  8.50000000E-01  8.50000000E-01
  8.00000000E-01  8.50000000E-01  8.50000000E-01  8.50000000E-01  8.00000000E-01
  8.50000000E-01  8.50000000E-01  8.50000000E-01  8.00000000E-01  8.50000000E-01
  8.50000000E-01  8.50000000E-01  8.00000000E-01  8.50000000E-01  8.50000000E-01
  8.50000000E-01  8.00000000E-01  8.50000000E-01  8.50000000E-01  8.50000000E-01
  8.00000000E-01  8.50000000E-01  8.50000000E-01  8.50000000E-01  8.00000000E-01
  8.50000000E-01  8.50000000E-01  8.50000000E-01  8.00000000E-01  8.50000000E-01
  8.50000000E-01  8.50000000E-01  8.00000000E-01  8.50000000E-01  8.50000000E-01
  8.50000000E-01  8.00000000E-01  8.50000000E-01  8.50000000E-01  8.50000000E-01
  8.00000000E-01  8.50000000E-01  8.50000000E-01  8.50000000E-01  8.00000000E-01
  8.50000000E-01  8.50000000E-01  8.50000000E-01  8.00000000E-01  8.50000000E-01
  8.50000000E-01  8.50000000E-01  8.00000000E-01  8.50000000E-01  8.50000000E-01
  8.50000000E-01  8.00000000E-01  8.50000000E-01  8.50000000E-01  8.50000000E-01
  8.00000000E-01  8.50000000E-01  8.50000000E-01  8.50000000E-01  8.00000000E-01
  8.50000000E-01  8.50000000E-01  8.50000000E-01  8.00000000E-01  8.50000000E-01
  8.50000000E-01  8.50000000E-01  8.00000000E-01  8.50000000E-01  8.50000000E-01
  8.50000000E-01  8.00000000E-01  8.50000000E-01  8.50000000E-01  8.50000000E-01
  8.00000000E-01  8.50000000E-01  8.50000000E-01  8.50000000E-01  8.00000000E-01
  8.50000000E-01  8.50000000E-01  8.50000000E-01  8.00000000E-01  8.50000000E-01
  8.50000000E-01  8.50000000E-01  8.00000000E-01  8.50000000E-01  8.50000000E-01
  8.50000000E-01  8.00000000E-01  8.50000000E-01  8.50000000E-01  8.50000000E-01
  8.00000000E-01  8.50000000E-01  8.50000000E-01  8.50000000E-01  8.00000000E-01
  8.50000000E-01  8.50000000E-01  8.50000000E-01  8.00000000E-01  8.50000000E-01
  8.50000000E-01  8.50000000E-01  8.00000000E-01  8.50000000E-01  8.50000000E-01
  8.50000000E-01  8.00000000E-01  8.50000000E-01  8.50000000E-01  8.50000000E-01
  8.00000000E-01  8.50000000E-01  8.50000000E-01  8.50000000E-01  8.00000000E-01
  8.50000000E-01  8.50000000E-01  8.50000000E-01  8.00000000E-01  8.50000000E-01
  8.50000000E-01  8.50000000E-01  8.00000000E-01  8.50000000E-01  8.50000000E-01
  8.50000000E-01  8.00000000E-01  8.50000000E-01  8.50000000E-01  8.50000000E-01
  8.00000000E-01  8.50000000E-01  8.50000000E-01  8.50000000E-01  8.00000000E-01
  8.50000000E-01  8.50000000E-01  8.50000000E-01  8.00000000E-01  8.50000000E-01
  8.50000000E-01  8.50000000E-01  8.00000000E-01  8.50000000E-01  8.50000000E-01
  8.50000000E-01  8.00000000E-01  8.50000000E-01  8.50000000E-01  8.50000000E-01
  8.00000000E-01  8.50000000E-01  8.50000000E-01  8.50000000E-01  8.00000000E-01
  8.50000000E-01  8.50000000E-01  8.50000000E-01  8.00000000E-01  8.50000000E-01
  8.50000000E-01  8.50000000E-01  8.00000000E-01  8.50000000E-01  8.50000000E-01
  8.50000000E-01  8.00000000E-01  8.50000000E-01  8.50000000E-01  8.50000000E-01
  8.00000000E-01  8.50000000E-01  8.50000000E-01  8.50000000E-01  8.00000000E-01
  8.50000000E-01  8.50000000E-01  8.50000000E-01  8.00000000E-01  8.50000000E-01
  8.50000000E-01  8.50000000E-01  8.00000000E-01  8.50000000E-01  8.50000000E-01
  8.50000000E-01  8.00000000E-01  8.50000000E-01  8.50000000E-01  8.50000000E-01
  8.00000000E-01  8.50000000E-01  8.50000000E-01  8.50000000E-01  8.00000000E-01
  8.50000000E-01  8.50000000E-01  8.50000000E-01  8.00000000E-01  8.50000000E-01
  8.50000000E-01  8.50000000E-01  8.00000000E-01  8.50000000E-01  8.50000000E-01
  8.50000000E-01  8.00000000E-01  8.50000000E-01  8.50000000E-01  8.50000000E-01
  8.00000000E-01  8.50000000E-01  8.50000000E-01  8.50000000E-01  8.00000000E-01
  8.50000000E-01  8.50000000E-01  8.50000000E-01  8.00000000E-01  8.50000000E-01
  8.50000000E-01  8.50000000E-01  8.00000000E-01  8.50000000E-01  8.50000000E-01
  8.50000000E-01  8.00000000E-01  8.50000000E-01  8.50000000E-01  8.50000000E-01
  8.00000000E-01  8.50000000E-01  8.50000000E-01  8.50000000E-01  8.00000000E-01
  8.50000000E-01  8.50000000E-01  8.50000000E-01  8.00000000E-01  8.50000000E-01
  8.50000000E-01  8.50000000E-01  8.00000000E-01  8.50000000E-01  8.50000000E-01
  8.50000000E-01  8.00000000E-01  8.50000000E-01  8.50000000E-01  8.50000000E-01
  8.00000000E-01  8.50000000E-01  8.50000000E-01  8.50000000E-01  8.00000000E-01
  8.50000000E-01  8.50000000E-01  8.50000000E-01  8.00000000E-01  8.50000000E-01
  8.50000000E-01  8.50000000E-01  8.00000000E-01  8.50000000E-01  8.50000000E-01
  8.50000000E-01  8.00000000E-01  8.50000000E-01  8.50000000E-01  8.50000000E-01
  8.00000000E-01  8.50000000E-01  8.50000000E-01  8.50000000E-01  8.00000000E-01
  8.50000000E-01  8.50000000E-01  8.50000000E-01  8.00000000E-01  8.50000000E-01
  8.50000000E-01  8.50000000E-01  8.00000000E-01  8.50000000E-01  8.50000000E-01
  8.50000000E-01  8.00000000E-01  8.50000000E-01  8.50000000E-01  8.50000000E-01
  8.00000000E-01  8.50000000E-01  8.50000000E-01  8.50000000E-01  8.00000000E-01
  8.50000000E-01  8.50000000E-01  8.50000000E-01  8.00000000E-01  8.50000000E-01
  8.50000000E-01  8.50000000E-01  8.00000000E-01  8.50000000E-01  8.50000000E-01
  8.50000000E-01  8.00000000E-01  8.50000000E-01  8.50000000E-01  8.50000000E-01
  8.00000000E-01  8.50000000E-01  8.50000000E-01  8.50000000E-01  8.00000000E-01
  8.50000000E-01  8.50000000E-01  8.50000000E-01  8.00000000E-01  8.50000000E-01
  8.50000000E-01  8.50000000E-01  8.00000000E-01  8.50000000E-01  8.50000000E-01
  8.50000000E-01  8.00000000E-01  8.50000000E-01  8.50000000E-01  8.50000000E-01
  8.00000000E-01  8.50000000E-01  8.50000000E-01  8.50000000E-01  8.00000000E-01
  8.50000000E-01  8.50000000E-01  8.50000000E-01  8.00000000E-01  8.50000000E-01
  8.50000000E-01  8.50000000E-01  8.00000000E-01  8.50000000E-01  8.50000000E-01
  8.50000000E-01  8.00000000E-01  8.50000000E-01  8.50000000E-01  8.50000000E-01
  8.00000000E-01  8.50000000E-01  8.50000000E-01  8.50000000E-01  8.00000000E-01
  8.50000000E-01  8.50000000E-01  8.50000000E-01  8.00000000E-01  8.50000000E-01
  8.50000000E-01  8.50000000E-01  8.00000000E-01  8.50000000E-01  8.50000000E-01
  8.50000000E-01  8.00000000E-01  8.50000000E-01  8.50000000E-01  8.50000000E-01
  8.00000000E-01  8.50000000E-01  8.50000000E-01  8.50000000E-01  8.00000000E-01
  8.50000000E-01  8.50000000E-01  8.50000000E-01  8.00000000E-01  8.50000000E-01
  8.50000000E-01  8.50000000E-01  8.00000000E-01  8.50000000E-01  8.50000000E-01
  8.50000000E-01  8.00000000E-01  8.50000000E-01  8.50000000E-01  8.50000000E-01
  8.00000000E-01  8.50000000E-01  8.50000000E-01  8.50000000E-01  8.00000000E-01
  8.50000000E-01  8.50000000E-01  8.50000000E-01  8.00000000E-01  8.50000000E-01
  8.50000000E-01  8.50000000E-01  8.00000000E-01  8.50000000E-01  8.50000000E-01
  8.50000000E-01  8.00000000E-01  8.50000000E-01  8.50000000E-01  8.50000000E-01
  8.00000000E-01  8.50000000E-01  8.50000000E-01  8.50000000E-01  8.00000000E-01
  8.50000000E-01  8.50000000E-01  8.50000000E-01  8.00000000E-01  8.50000000E-01
  8.50000000E-01  8.50000000E-01  8.00000000E-01  8.50000000E-01  8.50000000E-01
  8.50000000E-01  8.00000000E-01  8.50000000E-01  8.50000000E-01  8.50000000E-01
  8.00000000E-01  8.50000000E-01  8.50000000E-01  8.50000000E-01  8.00000000E-01
  8.50000000E-01  8.50000000E-01  8.50000000E-01  8.00000000E-01  8.50000000E-01
  8.50000000E-01  8.50000000E-01  8.00000000E-01  8.50000000E-01  8.50000000E-01
  8.50000000E-01  8.00000000E-01  8.50000000E-01  8.50000000E-01  8.50000000E-01
  8.00000000E-01  8.50000000E-01  8.50000000E-01  8.50000000E-01  8.00000000E-01
  8.50000000E-01  8.50000000E-01  8.50000000E-01  8.00000000E-01  8.50000000E-01
  8.50000000E-01  8.50000000E-01  8.00000000E-01  8.50000000E-01  8.50000000E-01
  8.50000000E-01  8.00000000E-01  8.50000000E-01  8.50000000E-01  8.50000000E-01
  8.00000000E-01  8.50000000E-01  8.50000000E-01  8.50000000E-01  8.00000000E-01
  8.50000000E-01  8.50000000E-01  8.50000000E-01  8.00000000E-01  8.50000000E-01
  8.50000000E-01  8.50000000E-01  8.00000000E-01  8.50000000E-01  8.50000000E-01
  8.50000000E-01  8.00000000E-01  8.50000000E-01  8.50000000E-01  8.50000000E-01
  8.00000000E-01  8.50000000E-01  8.50000000E-01  8.50000000E-01  8.00000000E-01
  8.50000000E-01  8.50000000E-01  8.50000000E-01  8.00000000E-01  8.50000000E-01
  8.50000000E-01  8.50000000E-01  8.00000000E-01  8.50000000E-01  8.50000000E-01
  8.50000000E-01  8.00000000E-01  8.50000000E-01  8.50000000E-01  8.50000000E-01
  8.00000000E-01  8.50000000E-01  8.50000000E-01  8.50000000E-01  8.00000000E-01
  8.50000000E-01  8.50000000E-01  8.50000000E-01  8.00000000E-01  8.50000000E-01
  8.50000000E-01  8.50000000E-01  8.00000000E-01  8.50000000E-01  8.50000000E-01
  8.50000000E-01  8.00000000E-01  8.50000000E-01  8.50000000E-01  8.50000000E-01
  8.00000000E-01  8.50000000E-01  8.50000000E-01  8.50000000E-01  8.00000000E-01
  8.50000000E-01  8.50000000E-01  8.50000000E-01  8.00000000E-01  8.50000000E-01
  8.50000000E-01  8.50000000E-01  8.00000000E-01  8.50000000E-01  8.50000000E-01
  8.50000000E-01  8.00000000E-01  8.50000000E-01  8.50000000E-01  8.50000000E-01
  8.00000000E-01  8.50000000E-01  8.50000000E-01  8.50000000E-01  8.00000000E-01
  8.50000000E-01  8.50000000E-01  8.50000000E-01  8.00000000E-01  8.50000000E-01
  8.50000000E-01  8.50000000E-01  8.00000000E-01  8.50000000E-01  8.50000000E-01
  8.50000000E-01  8.00000000E-01  8.50000000E-01  8.50000000E-01  8.50000000E-01
  8.00000000E-01  8.50000000E-01  8.50000000E-01  8.50000000E-01  8.00000000E-01
  8.50000000E-01  8.50000000E-01  8.50000000E-01  8.00000000E-01  8.50000000E-01
  8.50000000E-01  8.50000000E-01  8.00000000E-01  8.50000000E-01  8.50000000E-01
  8.50000000E-01  8.00000000E-01  8.50000000E-01  8.50000000E-01  8.50000000E-01
  8.00000000E-01  8.50000000E-01  8.50000000E-01  8.50000000E-01  8.00000000E-01
  8.50000000E-01  8.50000000E-01  8.50000000E-01  8.00000000E-01  8.50000000E-01
  8.50000000E-01  8.50000000E-01  8.00000000E-01  8.50000000E-01  8.50000000E-01
  8.50000000E-01  8.00000000E-01  8.50000000E-01  8.50000000E-01  8.50000000E-01
  8.00000000E-01  8.50000000E-01  8.50000000E-01  8.50000000E-01  8.00000000E-01
  8.50000000E-01  8.50000000E-01  8.50000000E-01  8.00000000E-01  8.50000000E-01
  8.50000000E-01  8.50000000E-01  8.00000000E-01  8.50000000E-01  8.50000000E-01
  8.50000000E-01  8.00000000E-01  8.50000000E-01  8.50000000E-01  8.50000000E-01
  8.00000000E-01  8.50000000E-01  8.50000000E-01  8.50000000E-01  8.00000000E-01
  8.50000000E-01  8.50000000E-01  8.50000000E-01  8.00000000E-01  8.50000000E-01
  8.50000000E-01  8.50000000E-01  8.00000000E-01  8.50000000E-01  8.50000000E-01
  8.50000000E-01  8.00000000E-01  8.50000000E-01  8.50000000E-01  8.50000000E-01
  8.00000000E-01  8.50000000E-01  8.50000000E-01  8.50000000E-01  8.00000000E-01
  8.50000000E-01  8.50000000E-01  8.50000000E-01  8.00000000E-01  8.50000000E-01
  8.50000000E-01  8.50000000E-01  8.00000000E-01  8.50000000E-01  8.50000000E-01
  8.50000000E-01  8.00000000E-01  8.50000000E-01  8.50000000E-01  8.50000000E-01
  8.00000000E-01  8.50000000E-01  8.50000000E-01  8.50000000E-01  8.00000000E-01
  8.50000000E-01  8.50000000E-01  8.50000000E-01  8.00000000E-01  8.50000000E-01
  8.50000000E-01  8.50000000E-01  8.00000000E-01  8.50000000E-01  8.50000000E-01
  8.50000000E-01  8.00000000E-01  8.50000000E-01  8.50000000E-01  8.50000000E-01
  8.00000000E-01  8.50000000E-01  8.50000000E-01  8.50000000E-01  8.00000000E-01
  8.50000000E-01  8.50000000E-01  8.50000000E-01  8.00000000E-01  8.50000000E-01
  8.50000000E-01  8.50000000E-01  8.00000000E-01  8.50000000E-01  8.50000000E-01
  8.50000000E-01  8.00000000E-01  8.50000000E-01  8.50000000E-01  8.50000000E-01
  8.00000000E-01  8.50000000E-01  8.50000000E-01  8.50000000E-01  8.00000000E-01
  8.50000000E-01  8.50000000E-01  8.50000000E-01  8.00000000E-01  8.50000000E-01
  8.50000000E-01  8.50000000E-01  8.00000000E-01  8.50000000E-01  8.50000000E-01
  8.50000000E-01  8.00000000E-01  8.50000000E-01  8.50000000E-01  8.50000000E-01
  8.00000000E-01  8.50000000E-01  8.50000000E-01  8.50000000E-01  8.00000000E-01
  8.50000000E-01  8.50000000E-01  8.50000000E-01  8.00000000E-01  8.50000000E-01
  8.50000000E-01  8.50000000E-01  8.00000000E-01  8.50000000E-01  8.50000000E-01
  8.50000000E-01  8.00000000E-01  8.50000000E-01  8.50000000E-01  8.50000000E-01
  8.00000000E-01  8.50000000E-01  8.50000000E-01  8.50000000E-01  8.00000000E-01
  8.50000000E-01  8.50000000E-01  8.50000000E-01  8.00000000E-01  8.50000000E-01
  8.50000000E-01  8.50000000E-01  8.00000000E-01  8.50000000E-01  8.50000000E-01
  8.50000000E-01  8.00000000E-01  8.50000000E-01  8.50000000E-01  8.50000000E-01
  8.00000000E-01  8.50000000E-01  8.50000000E-01  8.50000000E-01  8.00000000E-01
  8.50000000E-01  8.50000000E-01  8.50000000E-01  8.00000000E-01  8.50000000E-01
  8.50000000E-01  8.50000000E-01  8.00000000E-01  8.50000000E-01  8.50000000E-01
  8.50000000E-01  8.00000000E-01  8.50000000E-01  8.50000000E-01  8.50000000E-01
  8.00000000E-01  8.50000000E-01  8.50000000E-01  8.50000000E-01  8.00000000E-01
  8.50000000E-01  8.50000000E-01  8.50000000E-01  8.00000000E-01  8.50000000E-01
  8.50000000E-01  8.50000000E-01  8.00000000E-01  8.50000000E-01  8.50000000E-01
  8.50000000E-01  8.00000000E-01  8.50000000E-01  8.50000000E-01  8.50000000E-01
  8.00000000E-01  8.50000000E-01  8.50000000E-01  8.50000000E-01  8.00000000E-01
  8.50000000E-01  8.50000000E-01  8.50000000E-01  8.00000000E-01  8.50000000E-01
  8.50000000E-01  8.50000000E-01  8.00000000E-01  8.50000000E-01  8.50000000E-01
  8.50000000E-01  8.00000000E-01  8.50000000E-01  8.50000000E-01  8.50000000E-01
  8.00000000E-01  8.50000000E-01  8.50000000E-01  8.50000000E-01  8.00000000E-01
  8.50000000E-01  8.50000000E-01  8.50000000E-01  8.00000000E-01  8.50000000E-01
  8.50000000E-01  8.50000000E-01  8.00000000E-01  8.50000000E-01  8.50000000E-01
  8.50000000E-01  8.00000000E-01  8.50000000E-01  8.50000000E-01  8.50000000E-01
  8.00000000E-01  8.50000000E-01  8.50000000E-01  8.50000000E-01  8.00000000E-01
  8.50000000E-01  8.50000000E-01  8.50000000E-01  8.00000000E-01  8.50000000E-01
  8.50000000E-01  8.50000000E-01  8.00000000E-01  8.50000000E-01  8.50000000E-01
  8.50000000E-01  8.00000000E-01  8.50000000E-01  8.50000000E-01  8.50000000E-01
  8.00000000E-01  8.50000000E-01  8.50000000E-01  8.50000000E-01  8.00000000E-01
  8.50000000E-01  8.50000000E-01  8.50000000E-01  8.00000000E-01  8.50000000E-01
  8.50000000E-01  8.50000000E-01  8.00000000E-01  8.50000000E-01  8.50000000E-01
  8.50000000E-01  8.00000000E-01  8.50000000E-01  8.50000000E-01  8.50000000E-01
  8.00000000E-01  8.50000000E-01  8.50000000E-01  8.50000000E-01  8.00000000E-01
  8.50000000E-01  8.50000000E-01  8.50000000E-01  8.00000000E-01  8.50000000E-01
  8.50000000E-01  8.50000000E-01  8.00000000E-01  8.50000000E-01  8.50000000E-01
  8.50000000E-01  8.00000000E-01  8.50000000E-01  8.50000000E-01  8.50000000E-01
  8.00000000E-01  8.50000000E-01  8.50000000E-01  8.50000000E-01  8.00000000E-01
  8.50000000E-01  8.50000000E-01  8.50000000E-01  8.00000000E-01  8.50000000E-01
  8.50000000E-01  8.50000000E-01  8.00000000E-01  8.50000000E-01  8.50000000E-01
  8.50000000E-01  8.00000000E-01  8.50000000E-01  8.50000000E-01  8.50000000E-01
  8.00000000E-01  8.50000000E-01  8.50000000E-01  8.50000000E-01  8.00000000E-01
  8.50000000E-01  8.50000000E-01  8.50000000E-01  8.00000000E-01  8.50000000E-01
  8.50000000E-01  8.50000000E-01  8.00000000E-01  8.50000000E-01  8.50000000E-01
  8.50000000E-01  8.00000000E-01  8.50000000E-01  8.50000000E-01  8.50000000E-01
  8.00000000E-01  8.50000000E-01  8.50000000E-01  8.50000000E-01  8.00000000E-01
  8.50000000E-01  8.50000000E-01  8.50000000E-01  8.00000000E-01  8.50000000E-01
  8.50000000E-01  8.50000000E-01  8.00000000E-01  8.50000000E-01  8.50000000E-01
  8.50000000E-01  8.00000000E-01  8.50000000E-01  8.50000000E-01  8.50000000E-01
  8.00000000E-01  8.50000000E-01  8.50000000E-01  8.50000000E-01  8.00000000E-01
  8.50000000E-01  8.50000000E-01  8.50000000E-01  8.00000000E-01  8.50000000E-01
  8.50000000E-01  8.50000000E-01  8.00000000E-01  8.50000000E-01  8.50000000E-01
  8.50000000E-01  8.00000000E-01  8.50000000E-01  8.50000000E-01  8.50000000E-01
  8.00000000E-01  8.50000000E-01  8.50000000E-01  8.50000000E-01  8.00000000E-01
  8.50000000E-01  8.50000000E-01  8.50000000E-01  8.00000000E-01  8.50000000E-01
  8.50000000E-01  8.50000000E-01  8.00000000E-01  8.50000000E-01  8.50000000E-01
  8.50000000E-01  8.00000000E-01  8.50000000E-01  8.50000000E-01  8.50000000E-01
  8.00000000E-01  8.50000000E-01  8.50000000E-01  8.50000000E-01  8.00000000E-01
  8.50000000E-01  8.50000000E-01  8.50000000E-01  8.00000000E-01  8.50000000E-01
  8.50000000E-01  8.50000000E-01  8.00000000E-01  8.50000000E-01  8.50000000E-01
  8.50000000E-01  8.00000000E-01  8.50000000E-01  8.50000000E-01  8.50000000E-01
  8.00000000E-01  8.50000000E-01  8.50000000E-01  8.50000000E-01  8.00000000E-01
  8.50000000E-01  8.50000000E-01  8.50000000E-01  8.00000000E-01  8.50000000E-01
  8.50000000E-01  8.50000000E-01  8.00000000E-01  8.50000000E-01  8.50000000E-01
  8.50000000E-01  8.00000000E-01  8.50000000E-01  8.50000000E-01  8.50000000E-01
  8.00000000E-01  8.50000000E-01  8.50000000E-01  8.50000000E-01  8.00000000E-01
  8.50000000E-01  8.50000000E-01  8.50000000E-01  8.00000000E-01  8.50000000E-01
  8.50000000E-01  8.50000000E-01  8.00000000E-01  8.50000000E-01  8.50000000E-01
  8.50000000E-01  8.00000000E-01  8.50000000E-01  8.50000000E-01  8.50000000E-01
  8.00000000E-01  8.50000000E-01  8.50000000E-01  8.50000000E-01  8.00000000E-01
  8.50000000E-01  8.50000000E-01  8.50000000E-01  8.00000000E-01  8.50000000E-01
  8.50000000E-01  8.50000000E-01  8.00000000E-01  8.50000000E-01  8.50000000E-01
  8.50000000E-01  8.00000000E-01  8.50000000E-01  8.50000000E-01  8.50000000E-01
  8.00000000E-01  8.50000000E-01  8.50000000E-01  8.50000000E-01  8.00000000E-01
  8.50000000E-01  8.50000000E-01  8.50000000E-01  8.00000000E-01  8.50000000E-01
  8.50000000E-01  8.50000000E-01  8.00000000E-01  8.50000000E-01  8.50000000E-01
  8.50000000E-01  8.00000000E-01  8.50000000E-01  8.50000000E-01  8.50000000E-01
  8.00000000E-01  8.50000000E-01  8.50000000E-01  8.50000000E-01  8.00000000E-01
  8.50000000E-01  8.50000000E-01  8.50000000E-01  8.00000000E-01  8.50000000E-01
  8.50000000E-01  8.50000000E-01  8.00000000E-01  8.50000000E-01  8.50000000E-01
  8.50000000E-01  8.00000000E-01  8.50000000E-01  8.50000000E-01  8.50000000E-01
  8.00000000E-01  8.50000000E-01  8.50000000E-01  8.50000000E-01  8.00000000E-01
  8.50000000E-01  8.50000000E-01  8.50000000E-01  8.00000000E-01  8.50000000E-01
  8.50000000E-01  8.50000000E-01  8.00000000E-01  8.50000000E-01  8.50000000E-01
  8.50000000E-01  8.00000000E-01  8.50000000E-01  8.50000000E-01  8.50000000E-01
  8.00000000E-01  8.50000000E-01  8.50000000E-01  8.50000000E-01  8.00000000E-01
  8.50000000E-01  8.50000000E-01  8.50000000E-01  8.00000000E-01  8.50000000E-01
  8.50000000E-01  8.50000000E-01  8.00000000E-01  8.50000000E-01  8.50000000E-01
  8.50000000E-01  8.00000000E-01  8.50000000E-01  8.50000000E-01  8.50000000E-01
  8.00000000E-01  8.50000000E-01  8.50000000E-01  8.50000000E-01  8.00000000E-01
  8.50000000E-01  8.50000000E-01  8.50000000E-01  8.00000000E-01  8.50000000E-01
  8.50000000E-01  8.50000000E-01  8.00000000E-01  8.50000000E-01  8.50000000E-01
  8.50000000E-01  8.00000000E-01  8.50000000E-01  8.50000000E-01  8.50000000E-01
  8.00000000E-01  8.50000000E-01  8.50000000E-01  8.50000000E-01  8.00000000E-01
  8.50000000E-01  8.50000000E-01  8.50000000E-01  8.00000000E-01  8.50000000E-01
  8.50000000E-01  8.50000000E-01  8.00000000E-01  8.50000000E-01  8.50000000E-01
  8.50000000E-01  8.00000000E-01  8.50000000E-01  8.50000000E-01  8.50000000E-01
  8.00000000E-01  8.50000000E-01  8.50000000E-01  8.50000000E-01  8.00000000E-01
  8.50000000E-01  8.50000000E-01  8.50000000E-01  8.00000000E-01  8.50000000E-01
  8.50000000E-01  8.50000000E-01  8.00000000E-01  8.50000000E-01  8.50000000E-01
  8.50000000E-01  8.00000000E-01  8.50000000E-01  8.50000000E-01  8.50000000E-01
  8.00000000E-01  8.50000000E-01  8.50000000E-01  8.50000000E-01  8.00000000E-01
  8.50000000E-01  8.50000000E-01  8.50000000E-01  8.00000000E-01  8.50000000E-01
  8.50000000E-01  8.50000000E-01  8.00000000E-01  8.50000000E-01  8.50000000E-01
  8.50000000E-01  8.00000000E-01  8.50000000E-01  8.50000000E-01  8.50000000E-01
  8.00000000E-01  8.50000000E-01  8.50000000E-01  8.50000000E-01  8.00000000E-01
  8.50000000E-01  8.50000000E-01  8.50000000E-01  8.00000000E-01  8.50000000E-01
  8.50000000E-01  8.50000000E-01  8.00000000E-01  8.50000000E-01  8.50000000E-01
  8.50000000E-01  8.00000000E-01  8.50000000E-01  8.50000000E-01  8.50000000E-01
  8.00000000E-01  8.50000000E-01  8.50000000E-01  8.50000000E-01  8.00000000E-01
  8.50000000E-01  8.50000000E-01  8.50000000E-01  8.00000000E-01  8.50000000E-01
  8.50000000E-01  8.50000000E-01  8.00000000E-01  8.50000000E-01  8.50000000E-01
  8.50000000E-01  8.00000000E-01  8.50000000E-01  8.50000000E-01  8.50000000E-01
  8.00000000E-01  8.50000000E-01  8.50000000E-01  8.50000000E-01  8.00000000E-01
  8.50000000E-01  8.50000000E-01  8.50000000E-01  8.00000000E-01  8.50000000E-01
  8.50000000E-01  8.50000000E-01  8.00000000E-01  8.50000000E-01  8.50000000E-01
  8.50000000E-01  8.00000000E-01  8.50000000E-01  8.50000000E-01  8.50000000E-01
  8.00000000E-01  8.50000000E-01  8.50000000E-01  8.50000000E-01  8.00000000E-01
  8.50000000E-01  8.50000000E-01  8.50000000E-01  8.00000000E-01  8.50000000E-01
  8.50000000E-01  8.50000000E-01  8.00000000E-01  8.50000000E-01  8.50000000E-01
  8.50000000E-01  8.00000000E-01  8.50000000E-01  8.50000000E-01  8.50000000E-01
  8.00000000E-01  8.50000000E-01  8.50000000E-01  8.50000000E-01  8.00000000E-01
  8.50000000E-01  8.50000000E-01  8.50000000E-01  8.00000000E-01  8.50000000E-01
  8.50000000E-01  8.50000000E-01  8.00000000E-01  8.50000000E-01  8.50000000E-01
  8.50000000E-01  8.00000000E-01  8.50000000E-01  8.50000000E-01  8.50000000E-01
  8.00000000E-01  8.50000000E-01  8.50000000E-01  8.50000000E-01  8.00000000E-01
  8.50000000E-01  8.50000000E-01  8.50000000E-01  8.00000000E-01  8.50000000E-01
  8.50000000E-01  8.50000000E-01  8.00000000E-01  8.50000000E-01  8.50000000E-01
  8.50000000E-01  8.00000000E-01  8.50000000E-01  8.50000000E-01  8.50000000E-01
  8.00000000E-01  8.50000000E-01  8.50000000E-01  8.50000000E-01  8.00000000E-01
  8.50000000E-01  8.50000000E-01  8.50000000E-01  8.00000000E-01  8.50000000E-01
  8.50000000E-01  8.50000000E-01  8.00000000E-01  8.50000000E-01  8.50000000E-01
  8.50000000E-01  8.00000000E-01  8.50000000E-01  8.50000000E-01  8.50000000E-01
  8.00000000E-01  8.50000000E-01  8.50000000E-01  8.50000000E-01  8.00000000E-01
  8.50000000E-01  8.50000000E-01  8.50000000E-01  8.00000000E-01  8.50000000E-01
  8.50000000E-01  8.50000000E-01  8.00000000E-01  8.50000000E-01  8.50000000E-01
  8.50000000E-01  8.00000000E-01  8.50000000E-01  8.50000000E-01  8.50000000E-01
  8.00000000E-01  8.50000000E-01  8.50000000E-01  8.50000000E-01  8.00000000E-01
  8.50000000E-01  8.50000000E-01  8.50000000E-01  8.00000000E-01  8.50000000E-01
  8.50000000E-01  8.50000000E-01  8.00000000E-01  8.50000000E-01  8.50000000E-01
  8.50000000E-01  8.00000000E-01  8.50000000E-01  8.50000000E-01  8.50000000E-01
  8.00000000E-01  8.50000000E-01  8.50000000E-01  8.50000000E-01  8.00000000E-01
  8.50000000E-01  8.50000000E-01  8.50000000E-01  8.00000000E-01  8.50000000E-01
  8.50000000E-01  8.50000000E-01  8.00000000E-01  8.50000000E-01  8.50000000E-01
  8.50000000E-01  8.00000000E-01  8.50000000E-01  8.50000000E-01  8.50000000E-01
  8.00000000E-01  8.50000000E-01  8.50000000E-01  8.50000000E-01  8.00000000E-01
  8.50000000E-01  8.50000000E-01  8.50000000E-01  8.00000000E-01  8.50000000E-01
  8.50000000E-01  8.50000000E-01  8.00000000E-01  8.50000000E-01  8.50000000E-01
  8.50000000E-01  8.00000000E-01  8.50000000E-01  8.50000000E-01  8.50000000E-01
  8.00000000E-01  8.50000000E-01  8.50000000E-01  8.50000000E-01  8.00000000E-01
  8.50000000E-01  8.50000000E-01  8.50000000E-01  8.00000000E-01  8.50000000E-01
  8.50000000E-01  8.50000000E-01  8.00000000E-01  8.50000000E-01  8.50000000E-01
  8.50000000E-01  8.00000000E-01  8.50000000E-01  8.50000000E-01  8.50000000E-01
  8.00000000E-01  8.50000000E-01  8.50000000E-01  8.50000000E-01  8.00000000E-01
  8.50000000E-01  8.50000000E-01  8.50000000E-01  8.00000000E-01  8.50000000E-01
  8.50000000E-01  8.50000000E-01  8.00000000E-01  8.50000000E-01  8.50000000E-01
  8.50000000E-01  8.00000000E-01  8.50000000E-01  8.50000000E-01  8.50000000E-01
  8.00000000E-01  8.50000000E-01  8.50000000E-01  8.50000000E-01  8.00000000E-01
  8.50000000E-01  8.50000000E-01  8.50000000E-01  8.00000000E-01  8.50000000E-01
  8.50000000E-01  8.50000000E-01  8.00000000E-01  8.50000000E-01  8.50000000E-01
  8.50000000E-01  8.00000000E-01  8.50000000E-01  8.50000000E-01  8.50000000E-01
  8.00000000E-01  8.50000000E-01  8.50000000E-01  8.50000000E-01  8.00000000E-01
  8.50000000E-01  8.50000000E-01  8.50000000E-01  8.00000000E-01  8.50000000E-01
  8.50000000E-01  8.50000000E-01  8.00000000E-01  8.50000000E-01  8.50000000E-01
  8.50000000E-01  8.00000000E-01  8.50000000E-01  8.50000000E-01  8.50000000E-01
  8.00000000E-01  8.50000000E-01  8.50000000E-01  8.50000000E-01  8.00000000E-01
  8.50000000E-01  8.50000000E-01  8.50000000E-01  8.00000000E-01  8.50000000E-01
  8.50000000E-01  8.50000000E-01  8.00000000E-01  8.50000000E-01  8.50000000E-01
  8.50000000E-01  8.00000000E-01  8.50000000E-01  8.50000000E-01  8.50000000E-01
  8.00000000E-01  8.50000000E-01  8.50000000E-01  8.50000000E-01  8.00000000E-01
  8.50000000E-01  8.50000000E-01  8.50000000E-01  8.00000000E-01  8.50000000E-01
  8.50000000E-01  8.50000000E-01  8.00000000E-01  8.50000000E-01  8.50000000E-01
  8.50000000E-01  8.00000000E-01  8.50000000E-01  8.50000000E-01  8.50000000E-01
  8.00000000E-01  8.50000000E-01  8.50000000E-01  8.50000000E-01  8.00000000E-01
  8.50000000E-01  8.50000000E-01  8.50000000E-01  8.00000000E-01  8.50000000E-01
  8.50000000E-01  8.50000000E-01  8.00000000E-01  8.50000000E-01  8.50000000E-01
  8.50000000E-01  8.00000000E-01  8.50000000E-01  8.50000000E-01  8.50000000E-01
  8.00000000E-01  8.50000000E-01  8.50000000E-01  8.50000000E-01  8.00000000E-01
  8.50000000E-01  8.50000000E-01  8.50000000E-01  8.00000000E-01  8.50000000E-01
  8.50000000E-01  8.50000000E-01  8.00000000E-01  8.50000000E-01  8.50000000E-01
  8.50000000E-01  8.00000000E-01  8.50000000E-01  8.50000000E-01  8.50000000E-01
  8.00000000E-01  8.50000000E-01  8.50000000E-01  8.50000000E-01  8.00000000E-01
  8.50000000E-01  8.50000000E-01  8.50000000E-01  8.00000000E-01  8.50000000E-01
  8.50000000E-01  8.50000000E-01  8.00000000E-01  8.50000000E-01  8.50000000E-01
  8.50000000E-01  8.00000000E-01  8.50000000E-01  8.50000000E-01  8.50000000E-01
  8.00000000E-01  8.50000000E-01  8.50000000E-01  8.50000000E-01  8.00000000E-01
  8.50000000E-01  8.50000000E-01  8.50000000E-01  8.00000000E-01  8.50000000E-01
  8.50000000E-01  8.50000000E-01  8.00000000E-01  8.50000000E-01  8.50000000E-01
  8.50000000E-01  8.00000000E-01  8.50000000E-01  8.50000000E-01  8.50000000E-01
  8.00000000E-01  8.50000000E-01  8.50000000E-01  8.50000000E-01  8.00000000E-01
  8.50000000E-01  8.50000000E-01  8.50000000E-01  8.00000000E-01  8.50000000E-01
  8.50000000E-01  8.50000000E-01  8.00000000E-01  8.50000000E-01  8.50000000E-01
  8.50000000E-01  8.00000000E-01  8.50000000E-01  8.50000000E-01  8.50000000E-01
  8.00000000E-01  8.50000000E-01  8.50000000E-01  8.50000000E-01  8.00000000E-01
  8.50000000E-01  8.50000000E-01  8.50000000E-01  8.00000000E-01  8.50000000E-01
  8.50000000E-01  8.50000000E-01  8.00000000E-01  8.50000000E-01  8.50000000E-01
  8.50000000E-01  8.00000000E-01  8.50000000E-01  8.50000000E-01  8.50000000E-01
  8.00000000E-01  8.50000000E-01  8.50000000E-01  8.50000000E-01  8.00000000E-01
  8.50000000E-01  8.50000000E-01  8.50000000E-01  8.00000000E-01  8.50000000E-01
  8.50000000E-01  8.50000000E-01  8.00000000E-01  8.50000000E-01  8.50000000E-01
  8.50000000E-01  8.00000000E-01  8.50000000E-01  8.50000000E-01  8.50000000E-01
  8.00000000E-01  8.50000000E-01  8.50000000E-01  8.50000000E-01  8.00000000E-01
  8.50000000E-01  8.50000000E-01  8.50000000E-01  8.00000000E-01  8.50000000E-01
  8.50000000E-01  8.50000000E-01  8.00000000E-01  8.50000000E-01  8.50000000E-01
  8.50000000E-01  8.00000000E-01  8.50000000E-01  8.50000000E-01  8.50000000E-01
  8.00000000E-01  8.50000000E-01  8.50000000E-01  8.50000000E-01  8.00000000E-01
  8.50000000E-01  8.50000000E-01  8.50000000E-01  8.00000000E-01  8.50000000E-01
  8.50000000E-01  8.50000000E-01  8.00000000E-01  8.50000000E-01  8.50000000E-01
  8.50000000E-01  8.00000000E-01  8.50000000E-01  8.50000000E-01  8.50000000E-01
  8.00000000E-01  8.50000000E-01  8.50000000E-01  8.50000000E-01  8.00000000E-01
  8.50000000E-01  8.50000000E-01  8.50000000E-01  8.00000000E-01  8.50000000E-01
  8.50000000E-01  8.50000000E-01  8.00000000E-01  8.50000000E-01  8.50000000E-01
  8.50000000E-01  8.00000000E-01  8.50000000E-01  8.50000000E-01  8.50000000E-01
  8.00000000E-01  8.50000000E-01  8.50000000E-01  8.50000000E-01  8.00000000E-01
  8.50000000E-01  8.50000000E-01  8.50000000E-01  8.00000000E-01  8.50000000E-01
  8.50000000E-01  8.50000000E-01  8.00000000E-01  8.50000000E-01  8.50000000E-01
  8.50000000E-01  8.00000000E-01  8.50000000E-01  8.50000000E-01  8.50000000E-01
  8.00000000E-01  8.50000000E-01  8.50000000E-01  8.50000000E-01  8.00000000E-01
  8.50000000E-01  8.50000000E-01  8.50000000E-01  8.00000000E-01  8.50000000E-01
  8.50000000E-01  8.50000000E-01  8.00000000E-01  8.50000000E-01  8.50000000E-01
  8.50000000E-01  8.00000000E-01  8.50000000E-01  8.50000000E-01  8.50000000E-01
  8.00000000E-01  8.50000000E-01  8.50000000E-01  8.50000000E-01  8.00000000E-01
  8.50000000E-01  8.50000000E-01  8.50000000E-01  8.00000000E-01  8.50000000E-01
  8.50000000E-01  8.50000000E-01  8.00000000E-01  8.50000000E-01  8.50000000E-01
  8.50000000E-01  8.00000000E-01  8.50000000E-01  8.50000000E-01  8.50000000E-01
  8.00000000E-01  8.50000000E-01  8.50000000E-01  8.50000000E-01  8.00000000E-01
  8.50000000E-01  8.50000000E-01  8.50000000E-01  8.00000000E-01  8.50000000E-01
  8.50000000E-01  8.50000000E-01  8.00000000E-01  8.50000000E-01  8.50000000E-01
  8.50000000E-01  8.00000000E-01  8.50000000E-01  8.50000000E-01  8.50000000E-01
  8.00000000E-01  8.50000000E-01  8.50000000E-01  8.50000000E-01  8.00000000E-01
  8.50000000E-01  8.50000000E-01  8.50000000E-01  8.00000000E-01  8.50000000E-01
  8.50000000E-01  8.50000000E-01  8.00000000E-01  8.50000000E-01  8.50000000E-01
  8.50000000E-01  8.00000000E-01  8.50000000E-01  8.50000000E-01  8.50000000E-01
  8.00000000E-01  8.50000000E-01  8.50000000E-01  8.50000000E-01  8.00000000E-01
  8.50000000E-01  8.50000000E-01  8.50000000E-01  8.00000000E-01  8.50000000E-01
  8.50000000E-01  8.50000000E-01  8.00000000E-01  8.50000000E-01  8.50000000E-01
  8.50000000E-01  8.00000000E-01  8.50000000E-01  8.50000000E-01  8.50000000E-01
  8.00000000E-01  8.50000000E-01  8.50000000E-01  8.50000000E-01  8.00000000E-01
  8.50000000E-01  8.50000000E-01  8.50000000E-01  8.00000000E-01  8.50000000E-01
  8.50000000E-01  8.50000000E-01  8.00000000E-01  8.50000000E-01  8.50000000E-01
  8.50000000E-01  8.00000000E-01  8.50000000E-01  8.50000000E-01  8.50000000E-01
  8.00000000E-01  8.50000000E-01  8.50000000E-01  8.50000000E-01  8.00000000E-01
  8.50000000E-01  8.50000000E-01  8.50000000E-01  8.00000000E-01  8.50000000E-01
  8.50000000E-01  8.50000000E-01  8.00000000E-01  8.50000000E-01  8.50000000E-01
  8.50000000E-01  8.00000000E-01  8.50000000E-01  8.50000000E-01  8.50000000E-01
  8.00000000E-01  8.50000000E-01  8.50000000E-01  8.50000000E-01  8.00000000E-01
  8.50000000E-01  8.50000000E-01  8.50000000E-01  8.00000000E-01  8.50000000E-01
  8.50000000E-01  8.50000000E-01  8.00000000E-01  8.50000000E-01  8.50000000E-01
  8.50000000E-01  8.00000000E-01  8.50000000E-01  8.50000000E-01  8.50000000E-01
  8.00000000E-01  8.50000000E-01  8.50000000E-01  8.50000000E-01  8.00000000E-01
  8.50000000E-01  8.50000000E-01  8.50000000E-01  8.00000000E-01  8.50000000E-01
  8.50000000E-01  8.50000000E-01  8.00000000E-01  8.50000000E-01  8.50000000E-01
  8.50000000E-01  8.00000000E-01  8.50000000E-01  8.50000000E-01  8.50000000E-01
  8.00000000E-01  8.50000000E-01  8.50000000E-01  8.50000000E-01  8.00000000E-01
  8.50000000E-01  8.50000000E-01  8.50000000E-01  8.00000000E-01  8.50000000E-01
  8.50000000E-01  8.50000000E-01  8.00000000E-01  8.50000000E-01  8.50000000E-01
  8.50000000E-01  8.00000000E-01  8.50000000E-01  8.50000000E-01  8.50000000E-01
  8.00000000E-01  8.50000000E-01  8.50000000E-01  8.50000000E-01  8.00000000E-01
  8.50000000E-01  8.50000000E-01  8.50000000E-01  8.00000000E-01  8.50000000E-01
  8.50000000E-01  8.50000000E-01  8.00000000E-01  8.50000000E-01  8.50000000E-01
  8.50000000E-01  8.00000000E-01  8.50000000E-01  8.50000000E-01  8.50000000E-01
  8.00000000E-01  8.50000000E-01  8.50000000E-01  8.50000000E-01  8.00000000E-01
  8.50000000E-01  8.50000000E-01  8.50000000E-01  8.00000000E-01  8.50000000E-01
  8.50000000E-01  8.50000000E-01  8.00000000E-01  8.50000000E-01  8.50000000E-01
  8.50000000E-01  8.00000000E-01  8.50000000E-01  8.50000000E-01  8.50000000E-01
  8.00000000E-01  8.50000000E-01  8.50000000E-01  8.50000000E-01  8.00000000E-01
  8.50000000E-01  8.50000000E-01  8.50000000E-01  8.00000000E-01  8.50000000E-01
  8.50000000E-01  8.50000000E-01  8.00000000E-01  8.50000000E-01  8.50000000E-01
  8.50000000E-01  8.00000000E-01  8.50000000E-01  8.50000000E-01  8.50000000E-01
  8.00000000E-01  8.50000000E-01  8.50000000E-01  8.50000000E-01  8.00000000E-01
  8.50000000E-01  8.50000000E-01  8.50000000E-01  8.00000000E-01  8.50000000E-01
  8.50000000E-01  8.50000000E-01  8.00000000E-01  8.50000000E-01  8.50000000E-01
  8.50000000E-01  8.00000000E-01  8.50000000E-01  8.50000000E-01  8.50000000E-01
  8.00000000E-01  8.50000000E-01  8.50000000E-01  8.50000000E-01  8.00000000E-01
  8.50000000E-01  8.50000000E-01  8.50000000E-01  8.00000000E-01  8.50000000E-01
  8.50000000E-01  8.50000000E-01  8.00000000E-01  8.50000000E-01  8.50000000E-01
  8.50000000E-01  8.00000000E-01  8.50000000E-01  8.50000000E-01  8.50000000E-01
  8.00000000E-01  8.50000000E-01  8.50000000E-01  8.50000000E-01  8.00000000E-01
  8.50000000E-01  8.50000000E-01  8.50000000E-01  8.00000000E-01  8.50000000E-01
  8.50000000E-01  8.50000000E-01  8.00000000E-01  8.50000000E-01  8.50000000E-01
  8.50000000E-01  8.00000000E-01  8.50000000E-01  8.50000000E-01  8.50000000E-01
  8.00000000E-01  8.50000000E-01  8.50000000E-01  8.50000000E-01  8.00000000E-01
  8.50000000E-01  8.50000000E-01  8.50000000E-01  8.00000000E-01  8.50000000E-01
  8.50000000E-01  8.50000000E-01  8.00000000E-01  8.50000000E-01  8.50000000E-01
  8.50000000E-01  8.00000000E-01  8.50000000E-01  8.50000000E-01  8.50000000E-01
  8.00000000E-01  8.50000000E-01  8.50000000E-01  8.50000000E-01  8.00000000E-01
  8.50000000E-01  8.50000000E-01  8.50000000E-01  8.00000000E-01  8.50000000E-01
  8.50000000E-01  8.50000000E-01  8.00000000E-01  8.50000000E-01  8.50000000E-01
  8.50000000E-01  8.00000000E-01  8.50000000E-01  8.50000000E-01  8.50000000E-01
  8.00000000E-01  8.50000000E-01  8.50000000E-01  8.50000000E-01  8.00000000E-01
  8.50000000E-01  8.50000000E-01  8.50000000E-01  8.00000000E-01  8.50000000E-01
  8.50000000E-01  8.50000000E-01  8.00000000E-01  8.50000000E-01  8.50000000E-01
  8.50000000E-01  8.00000000E-01  8.50000000E-01  8.50000000E-01  8.50000000E-01
  8.00000000E-01  8.50000000E-01  8.50000000E-01  8.50000000E-01  8.00000000E-01
  8.50000000E-01  8.50000000E-01  8.50000000E-01  8.00000000E-01  8.50000000E-01
  8.50000000E-01  8.50000000E-01  8.00000000E-01  8.50000000E-01  8.50000000E-01
  8.50000000E-01  8.00000000E-01  8.50000000E-01  8.50000000E-01  8.50000000E-01
  8.00000000E-01  8.50000000E-01  8.50000000E-01  8.50000000E-01  8.00000000E-01
  8.50000000E-01  8.50000000E-01  8.50000000E-01  8.00000000E-01  8.50000000E-01
  8.50000000E-01  8.50000000E-01  8.00000000E-01  8.50000000E-01  8.50000000E-01
  8.50000000E-01  8.00000000E-01  8.50000000E-01  8.50000000E-01  8.50000000E-01
  8.00000000E-01  8.50000000E-01  8.50000000E-01  8.50000000E-01  8.00000000E-01
  8.50000000E-01  8.50000000E-01  8.50000000E-01  8.00000000E-01  8.50000000E-01
  8.50000000E-01  8.50000000E-01  8.00000000E-01  8.50000000E-01  8.50000000E-01
  8.50000000E-01  8.00000000E-01  8.50000000E-01  8.50000000E-01  8.50000000E-01
  8.00000000E-01  8.50000000E-01  8.50000000E-01  8.50000000E-01  8.00000000E-01
  8.50000000E-01  8.50000000E-01  8.50000000E-01  8.00000000E-01  8.50000000E-01
  8.50000000E-01  8.50000000E-01  8.00000000E-01  8.50000000E-01  8.50000000E-01
  8.50000000E-01  8.00000000E-01  8.50000000E-01  8.50000000E-01  8.50000000E-01
  8.00000000E-01  8.50000000E-01  8.50000000E-01  8.50000000E-01  8.00000000E-01
  8.50000000E-01  8.50000000E-01  8.50000000E-01  8.00000000E-01  8.50000000E-01
  8.50000000E-01  8.50000000E-01  8.00000000E-01  8.50000000E-01  8.50000000E-01
  8.50000000E-01  8.00000000E-01  8.50000000E-01  8.50000000E-01  8.50000000E-01
  8.00000000E-01  8.50000000E-01  8.50000000E-01  8.50000000E-01  8.00000000E-01
  8.50000000E-01  8.50000000E-01  8.50000000E-01  8.00000000E-01  8.50000000E-01
  8.50000000E-01  8.50000000E-01  8.00000000E-01  8.50000000E-01  8.50000000E-01
  8.50000000E-01  8.00000000E-01  8.50000000E-01  8.50000000E-01  8.50000000E-01
  8.00000000E-01  8.50000000E-01  8.50000000E-01  8.50000000E-01  8.00000000E-01
  8.50000000E-01  8.50000000E-01  8.50000000E-01  8.00000000E-01  8.50000000E-01
  8.50000000E-01  8.50000000E-01  8.00000000E-01  8.50000000E-01  8.50000000E-01
  8.50000000E-01  8.00000000E-01  8.50000000E-01  8.50000000E-01  8.50000000E-01
  8.00000000E-01  8.50000000E-01  8.50000000E-01  8.50000000E-01  8.00000000E-01
  8.50000000E-01  8.50000000E-01  8.50000000E-01  8.00000000E-01  8.50000000E-01
  8.50000000E-01  8.50000000E-01  8.00000000E-01  8.50000000E-01  8.50000000E-01
  8.50000000E-01  8.00000000E-01  8.50000000E-01  8.50000000E-01  8.50000000E-01
  8.00000000E-01  8.50000000E-01  8.50000000E-01  8.50000000E-01  8.00000000E-01
  8.50000000E-01  8.50000000E-01  8.50000000E-01  8.00000000E-01  8.50000000E-01
  8.50000000E-01  8.50000000E-01  8.00000000E-01  8.50000000E-01  8.50000000E-01
  8.50000000E-01  8.00000000E-01  8.50000000E-01  8.50000000E-01  8.50000000E-01
  8.00000000E-01  8.50000000E-01  8.50000000E-01  8.50000000E-01  8.00000000E-01
  8.50000000E-01  8.50000000E-01  8.50000000E-01  8.00000000E-01  8.50000000E-01
  8.50000000E-01  8.50000000E-01  8.00000000E-01  8.50000000E-01  8.50000000E-01
  8.50000000E-01  8.00000000E-01  8.50000000E-01  8.50000000E-01  8.50000000E-01
  8.00000000E-01  8.50000000E-01  8.50000000E-01  8.50000000E-01  8.00000000E-01
  8.50000000E-01  8.50000000E-01  8.50000000E-01  8.00000000E-01  8.50000000E-01
  8.50000000E-01  8.50000000E-01  8.00000000E-01  8.50000000E-01  8.50000000E-01
  8.50000000E-01  8.00000000E-01  8.50000000E-01  8.50000000E-01  8.50000000E-01
  8.00000000E-01  8.50000000E-01  8.50000000E-01  8.50000000E-01  8.00000000E-01
  8.50000000E-01  8.50000000E-01  8.50000000E-01  8.00000000E-01  8.50000000E-01
  8.50000000E-01  8.50000000E-01  8.00000000E-01  8.50000000E-01  8.50000000E-01
  8.50000000E-01  8.00000000E-01  8.50000000E-01  8.50000000E-01  8.50000000E-01
  8.00000000E-01  8.50000000E-01  8.50000000E-01  8.50000000E-01  8.00000000E-01
  8.50000000E-01  8.50000000E-01  8.50000000E-01  8.00000000E-01  8.50000000E-01
  8.50000000E-01  8.50000000E-01  8.00000000E-01  8.50000000E-01  8.50000000E-01
  8.50000000E-01  8.00000000E-01  8.50000000E-01  8.50000000E-01  8.50000000E-01
  8.00000000E-01  8.50000000E-01  8.50000000E-01  8.50000000E-01  8.00000000E-01
  8.50000000E-01  8.50000000E-01  8.50000000E-01  8.00000000E-01  8.50000000E-01
  8.50000000E-01  8.50000000E-01  8.00000000E-01  8.50000000E-01  8.50000000E-01
  8.50000000E-01  8.00000000E-01  8.50000000E-01  8.50000000E-01  8.50000000E-01
  8.00000000E-01  8.50000000E-01  8.50000000E-01  8.50000000E-01  8.00000000E-01
  8.50000000E-01  8.50000000E-01  8.50000000E-01  8.00000000E-01  8.50000000E-01
  8.50000000E-01  8.50000000E-01  8.00000000E-01  8.50000000E-01  8.50000000E-01
  8.50000000E-01  8.00000000E-01  8.50000000E-01  8.50000000E-01  8.50000000E-01
  8.00000000E-01  8.50000000E-01  8.50000000E-01  8.50000000E-01  8.00000000E-01
  8.50000000E-01  8.50000000E-01  8.50000000E-01  8.00000000E-01  8.50000000E-01
  8.50000000E-01  8.50000000E-01  8.00000000E-01  8.50000000E-01  8.50000000E-01
  8.50000000E-01  8.00000000E-01  8.50000000E-01  8.50000000E-01  8.50000000E-01
  8.00000000E-01  8.50000000E-01  8.50000000E-01  8.50000000E-01  8.00000000E-01
  8.50000000E-01  8.50000000E-01  8.50000000E-01  8.00000000E-01  8.50000000E-01
  8.50000000E-01  8.50000000E-01  8.00000000E-01  8.50000000E-01  8.50000000E-01
  8.50000000E-01  8.00000000E-01  8.50000000E-01  8.50000000E-01  8.50000000E-01
  8.00000000E-01  8.50000000E-01  8.50000000E-01  8.50000000E-01  8.00000000E-01
  8.50000000E-01  8.50000000E-01  8.50000000E-01  8.00000000E-01  8.50000000E-01
  8.50000000E-01  8.50000000E-01  8.00000000E-01  8.50000000E-01  8.50000000E-01
  8.50000000E-01  8.00000000E-01  8.50000000E-01  8.50000000E-01  8.50000000E-01
  8.00000000E-01  8.50000000E-01  8.50000000E-01  8.50000000E-01  8.00000000E-01
  8.50000000E-01  8.50000000E-01  8.50000000E-01  8.00000000E-01  8.50000000E-01
  8.50000000E-01  8.50000000E-01  8.00000000E-01  8.50000000E-01  8.50000000E-01
  8.50000000E-01  8.00000000E-01  8.50000000E-01  8.50000000E-01  8.50000000E-01
  8.00000000E-01  8.50000000E-01  8.50000000E-01  8.50000000E-01  8.00000000E-01
  8.50000000E-01  8.50000000E-01  8.50000000E-01  8.00000000E-01  8.50000000E-01
  8.50000000E-01  8.50000000E-01  8.00000000E-01  8.50000000E-01  8.50000000E-01
  8.50000000E-01  8.00000000E-01  8.50000000E-01  8.50000000E-01  8.50000000E-01
  8.00000000E-01  8.50000000E-01  8.50000000E-01  8.50000000E-01  8.00000000E-01
  8.50000000E-01  8.50000000E-01  8.50000000E-01  8.00000000E-01  8.50000000E-01
  8.50000000E-01  8.50000000E-01  8.00000000E-01  8.50000000E-01  8.50000000E-01
  8.50000000E-01  8.00000000E-01  8.50000000E-01  8.50000000E-01  8.50000000E-01
  8.00000000E-01  8.50000000E-01  8.50000000E-01  8.50000000E-01  8.00000000E-01
  8.50000000E-01  8.50000000E-01  8.50000000E-01  8.00000000E-01  8.50000000E-01
  8.50000000E-01  8.50000000E-01  8.00000000E-01  8.50000000E-01  8.50000000E-01
  8.50000000E-01  8.00000000E-01  8.50000000E-01  8.50000000E-01  8.50000000E-01
  8.00000000E-01  8.50000000E-01  8.50000000E-01  8.50000000E-01  8.00000000E-01
  8.50000000E-01  8.50000000E-01  8.50000000E-01  8.00000000E-01  8.50000000E-01
  8.50000000E-01  8.50000000E-01  8.00000000E-01  8.50000000E-01  8.50000000E-01
  8.50000000E-01  8.00000000E-01  8.50000000E-01  8.50000000E-01  8.50000000E-01
  8.00000000E-01  8.50000000E-01  8.50000000E-01  8.50000000E-01  8.00000000E-01
  8.50000000E-01  8.50000000E-01  8.50000000E-01  8.00000000E-01  8.50000000E-01
  8.50000000E-01  8.50000000E-01  8.00000000E-01  8.50000000E-01  8.50000000E-01
  8.50000000E-01  8.00000000E-01  8.50000000E-01  8.50000000E-01  8.50000000E-01
  8.00000000E-01  8.50000000E-01  8.50000000E-01  8.50000000E-01  8.00000000E-01
  8.50000000E-01  8.50000000E-01  8.50000000E-01  8.00000000E-01  8.50000000E-01
  8.50000000E-01  8.50000000E-01  8.00000000E-01  8.50000000E-01  8.50000000E-01
  8.50000000E-01  8.00000000E-01  8.50000000E-01  8.50000000E-01  8.50000000E-01
  8.00000000E-01  8.50000000E-01  8.50000000E-01  8.50000000E-01  8.00000000E-01
  8.50000000E-01  8.50000000E-01  8.50000000E-01  8.00000000E-01  8.50000000E-01
  8.50000000E-01  8.50000000E-01  8.00000000E-01  8.50000000E-01  8.50000000E-01
  8.50000000E-01  8.00000000E-01  8.50000000E-01  8.50000000E-01  8.50000000E-01
  8.00000000E-01  8.50000000E-01  8.50000000E-01  8.50000000E-01  8.00000000E-01
  8.50000000E-01  8.50000000E-01  8.50000000E-01  8.00000000E-01  8.50000000E-01
  8.50000000E-01  8.50000000E-01  8.00000000E-01  8.50000000E-01  8.50000000E-01
  8.50000000E-01  8.00000000E-01  8.50000000E-01  8.50000000E-01  8.50000000E-01
  8.00000000E-01  8.50000000E-01  8.50000000E-01  8.50000000E-01  8.00000000E-01
  8.50000000E-01  8.50000000E-01  8.50000000E-01  8.00000000E-01  8.50000000E-01
  8.50000000E-01  8.50000000E-01  8.00000000E-01  8.50000000E-01  8.50000000E-01
  8.50000000E-01  8.00000000E-01  8.50000000E-01  8.50000000E-01  8.50000000E-01
  8.00000000E-01  8.50000000E-01  8.50000000E-01  8.50000000E-01  8.00000000E-01
  8.50000000E-01  8.50000000E-01  8.50000000E-01  8.00000000E-01  8.50000000E-01
  8.50000000E-01  8.50000000E-01  8.00000000E-01  8.50000000E-01  8.50000000E-01
  8.50000000E-01  8.00000000E-01  8.50000000E-01  8.50000000E-01  8.50000000E-01
  8.00000000E-01  8.50000000E-01  8.50000000E-01  8.50000000E-01  8.00000000E-01
  8.50000000E-01  8.50000000E-01  8.50000000E-01  8.00000000E-01  8.50000000E-01
  8.50000000E-01  8.50000000E-01  8.00000000E-01  8.50000000E-01  8.50000000E-01
  8.50000000E-01  8.00000000E-01  8.50000000E-01  8.50000000E-01  8.50000000E-01
  8.00000000E-01  8.50000000E-01  8.50000000E-01  8.50000000E-01  8.00000000E-01
  8.50000000E-01  8.50000000E-01  8.50000000E-01  8.00000000E-01  8.50000000E-01
  8.50000000E-01  8.50000000E-01  8.00000000E-01  8.50000000E-01  8.50000000E-01
  8.50000000E-01  8.00000000E-01  8.50000000E-01  8.50000000E-01  8.50000000E-01
  8.00000000E-01  8.50000000E-01  8.50000000E-01  8.50000000E-01  8.00000000E-01
  8.50000000E-01  8.50000000E-01  8.50000000E-01  8.00000000E-01  8.50000000E-01
  8.50000000E-01  8.50000000E-01  8.00000000E-01  8.50000000E-01  8.50000000E-01
  8.50000000E-01  8.00000000E-01  8.50000000E-01  8.50000000E-01  8.50000000E-01
  8.00000000E-01  8.50000000E-01  8.50000000E-01  8.50000000E-01  8.00000000E-01
  8.50000000E-01  8.50000000E-01  8.50000000E-01  8.00000000E-01  8.50000000E-01
  8.50000000E-01  8.50000000E-01  8.00000000E-01  8.50000000E-01  8.50000000E-01
  8.50000000E-01  8.00000000E-01  8.50000000E-01  8.50000000E-01  8.50000000E-01
  8.00000000E-01  8.50000000E-01  8.50000000E-01  8.50000000E-01  8.00000000E-01
  8.50000000E-01  8.50000000E-01  8.50000000E-01  8.00000000E-01  8.50000000E-01
  8.50000000E-01  8.50000000E-01  8.00000000E-01  8.50000000E-01  8.50000000E-01
  8.50000000E-01  8.00000000E-01  8.50000000E-01  8.50000000E-01  8.50000000E-01
  8.00000000E-01  8.50000000E-01  8.50000000E-01  8.50000000E-01  8.00000000E-01
  8.50000000E-01  8.50000000E-01  8.50000000E-01  8.00000000E-01  8.50000000E-01
  8.50000000E-01  8.50000000E-01  8.00000000E-01  8.50000000E-01  8.50000000E-01
  8.50000000E-01  8.00000000E-01  8.50000000E-01  8.50000000E-01  8.50000000E-01
  8.00000000E-01  8.50000000E-01  8.50000000E-01  8.50000000E-01  8.00000000E-01
  8.50000000E-01  8.50000000E-01  8.50000000E-01  8.00000000E-01  8.50000000E-01
  8.50000000E-01  8.50000000E-01  8.00000000E-01  8.50000000E-01  8.50000000E-01
  8.50000000E-01  8.00000000E-01  8.50000000E-01  8.50000000E-01  8.50000000E-01
  8.00000000E-01  8.50000000E-01  8.50000000E-01  8.50000000E-01  8.00000000E-01
  8.50000000E-01  8.50000000E-01  8.50000000E-01  8.00000000E-01  8.50000000E-01
  8.50000000E-01  8.50000000E-01  8.00000000E-01  8.50000000E-01  8.50000000E-01
  8.50000000E-01  8.00000000E-01  8.50000000E-01  8.50000000E-01  8.50000000E-01
  8.00000000E-01  8.50000000E-01  8.50000000E-01  8.50000000E-01  8.00000000E-01
  8.50000000E-01  8.50000000E-01  8.50000000E-01  8.00000000E-01  8.50000000E-01
  8.50000000E-01  8.50000000E-01  8.00000000E-01  8.50000000E-01  8.50000000E-01
  8.50000000E-01  8.00000000E-01  8.50000000E-01  8.50000000E-01  8.50000000E-01
  8.00000000E-01  8.50000000E-01  8.50000000E-01  8.50000000E-01  8.00000000E-01
  8.50000000E-01  8.50000000E-01  8.50000000E-01  8.00000000E-01  8.50000000E-01
  8.50000000E-01  8.50000000E-01  8.00000000E-01  8.50000000E-01  8.50000000E-01
  8.50000000E-01  8.00000000E-01  8.50000000E-01  8.50000000E-01  8.50000000E-01
  8.00000000E-01  8.50000000E-01  8.50000000E-01  8.50000000E-01  8.00000000E-01
  8.50000000E-01  8.50000000E-01  8.50000000E-01  8.00000000E-01  8.50000000E-01
  8.50000000E-01  8.50000000E-01  8.00000000E-01  8.50000000E-01  8.50000000E-01
  8.50000000E-01  8.00000000E-01  8.50000000E-01  8.50000000E-01  8.50000000E-01
  8.00000000E-01  8.50000000E-01  8.50000000E-01  8.50000000E-01  8.00000000E-01
  8.50000000E-01  8.50000000E-01  8.50000000E-01  8.00000000E-01  8.50000000E-01
  8.50000000E-01  8.50000000E-01  8.00000000E-01  8.50000000E-01  8.50000000E-01
  8.50000000E-01  8.00000000E-01  8.50000000E-01  8.50000000E-01  8.50000000E-01
  8.00000000E-01  8.50000000E-01  8.50000000E-01  8.50000000E-01  8.00000000E-01
  8.50000000E-01  8.50000000E-01  8.50000000E-01  8.00000000E-01  8.50000000E-01
  8.50000000E-01  8.50000000E-01  8.00000000E-01  8.50000000E-01  8.50000000E-01
  8.50000000E-01  8.00000000E-01  8.50000000E-01  8.50000000E-01  8.50000000E-01
  8.00000000E-01  8.50000000E-01  8.50000000E-01  8.50000000E-01  8.00000000E-01
  8.50000000E-01  8.50000000E-01  8.50000000E-01  8.00000000E-01  8.50000000E-01
  8.50000000E-01  8.50000000E-01  8.00000000E-01  8.50000000E-01  8.50000000E-01
  8.50000000E-01  8.00000000E-01  8.50000000E-01  8.50000000E-01  8.50000000E-01
  8.00000000E-01  8.50000000E-01  8.50000000E-01  8.50000000E-01  8.00000000E-01
  8.50000000E-01  8.50000000E-01  8.50000000E-01  8.00000000E-01  8.50000000E-01
  8.50000000E-01  8.50000000E-01  8.00000000E-01  8.50000000E-01  8.50000000E-01
  8.50000000E-01  8.00000000E-01  8.50000000E-01  8.50000000E-01  8.50000000E-01
  8.00000000E-01  8.50000000E-01  8.50000000E-01  8.50000000E-01  8.00000000E-01
  8.50000000E-01  8.50000000E-01  8.50000000E-01  8.00000000E-01  8.50000000E-01
  8.50000000E-01  8.50000000E-01  8.00000000E-01  8.50000000E-01  8.50000000E-01
  8.50000000E-01  8.00000000E-01  8.50000000E-01  8.50000000E-01  8.50000000E-01
  8.00000000E-01  8.50000000E-01  8.50000000E-01  8.50000000E-01  8.00000000E-01
  8.50000000E-01  8.50000000E-01  8.50000000E-01  8.00000000E-01  8.50000000E-01
  8.50000000E-01  8.50000000E-01  8.00000000E-01  8.50000000E-01  8.50000000E-01
  8.50000000E-01  8.00000000E-01  8.50000000E-01  8.50000000E-01  8.50000000E-01
  8.00000000E-01  8.50000000E-01  8.50000000E-01  8.50000000E-01  8.00000000E-01
  8.50000000E-01  8.50000000E-01  8.50000000E-01  8.00000000E-01  8.50000000E-01
  8.50000000E-01  8.50000000E-01  8.00000000E-01  8.50000000E-01  8.50000000E-01
  8.50000000E-01  8.00000000E-01  8.50000000E-01  8.50000000E-01  8.50000000E-01
  8.00000000E-01  8.50000000E-01  8.50000000E-01  8.50000000E-01  8.00000000E-01
  8.50000000E-01  8.50000000E-01  8.50000000E-01  8.00000000E-01  8.50000000E-01
  8.50000000E-01  8.50000000E-01  8.00000000E-01  8.50000000E-01  8.50000000E-01
  8.50000000E-01  8.00000000E-01  8.50000000E-01  8.50000000E-01  8.50000000E-01
  8.00000000E-01  8.50000000E-01  8.50000000E-01  8.50000000E-01  8.00000000E-01
  8.50000000E-01  8.50000000E-01  8.50000000E-01  8.00000000E-01  8.50000000E-01
  8.50000000E-01  8.50000000E-01  8.00000000E-01  8.50000000E-01  8.50000000E-01
  8.50000000E-01  8.00000000E-01  8.50000000E-01  8.50000000E-01  8.50000000E-01
  8.00000000E-01  8.50000000E-01  8.50000000E-01  8.50000000E-01  8.00000000E-01
  8.50000000E-01  8.50000000E-01  8.50000000E-01  8.00000000E-01  8.50000000E-01
  8.50000000E-01  8.50000000E-01  8.00000000E-01  8.50000000E-01  8.50000000E-01
  8.50000000E-01  8.00000000E-01  8.50000000E-01  8.50000000E-01  8.50000000E-01
  8.00000000E-01  8.50000000E-01  8.50000000E-01  8.50000000E-01  8.00000000E-01
  8.50000000E-01  8.50000000E-01  8.50000000E-01  8.00000000E-01  8.50000000E-01
  8.50000000E-01  8.50000000E-01  8.00000000E-01  8.50000000E-01  8.50000000E-01
  8.50000000E-01  8.00000000E-01  8.50000000E-01  8.50000000E-01  8.50000000E-01
  8.00000000E-01  8.50000000E-01  8.50000000E-01  8.50000000E-01  8.00000000E-01
  8.50000000E-01  8.50000000E-01  8.50000000E-01  8.00000000E-01  8.50000000E-01
  8.50000000E-01  8.50000000E-01  8.00000000E-01  8.50000000E-01  8.50000000E-01
  8.50000000E-01  8.00000000E-01  8.50000000E-01  8.50000000E-01  8.50000000E-01
  8.00000000E-01  8.50000000E-01  8.50000000E-01  8.50000000E-01  8.00000000E-01
  8.50000000E-01  8.50000000E-01  8.50000000E-01  8.00000000E-01  8.50000000E-01
  8.50000000E-01  8.50000000E-01  8.00000000E-01  8.50000000E-01  8.50000000E-01
  8.50000000E-01  8.00000000E-01  8.50000000E-01  8.50000000E-01  8.50000000E-01
  8.00000000E-01  8.50000000E-01  8.50000000E-01  8.50000000E-01  8.00000000E-01
  8.50000000E-01  8.50000000E-01  8.50000000E-01  8.00000000E-01  8.50000000E-01
  8.50000000E-01  8.50000000E-01  8.00000000E-01  8.50000000E-01  8.50000000E-01
  8.50000000E-01  8.00000000E-01  8.50000000E-01  8.50000000E-01  8.50000000E-01
  8.00000000E-01  8.50000000E-01  8.50000000E-01  8.50000000E-01  8.00000000E-01
  8.50000000E-01  8.50000000E-01  8.50000000E-01  8.00000000E-01  8.50000000E-01
  8.50000000E-01  8.50000000E-01  8.00000000E-01  8.50000000E-01  8.50000000E-01
  8.50000000E-01  8.00000000E-01  8.50000000E-01  8.50000000E-01  8.50000000E-01
  8.00000000E-01  8.50000000E-01  8.50000000E-01  8.50000000E-01  8.00000000E-01
  8.50000000E-01  8.50000000E-01  8.50000000E-01  8.00000000E-01  8.50000000E-01
  8.50000000E-01  8.50000000E-01  8.00000000E-01  8.50000000E-01  8.50000000E-01
  8.50000000E-01  8.00000000E-01  8.50000000E-01  8.50000000E-01  8.50000000E-01
  8.00000000E-01  8.50000000E-01  8.50000000E-01  8.50000000E-01  8.00000000E-01
  8.50000000E-01  8.50000000E-01  8.50000000E-01  8.00000000E-01  8.50000000E-01
  8.50000000E-01  8.50000000E-01  8.00000000E-01  8.50000000E-01  8.50000000E-01
  8.50000000E-01  8.00000000E-01  8.50000000E-01  8.50000000E-01  8.50000000E-01
  8.00000000E-01  8.50000000E-01  8.50000000E-01  8.50000000E-01  8.00000000E-01
  8.50000000E-01  8.50000000E-01  8.50000000E-01  8.00000000E-01  8.50000000E-01
  8.50000000E-01  8.50000000E-01  8.00000000E-01  8.50000000E-01  8.50000000E-01
  8.50000000E-01  8.00000000E-01  8.50000000E-01  8.50000000E-01  8.50000000E-01
  8.00000000E-01  8.50000000E-01  8.50000000E-01  8.50000000E-01  8.00000000E-01
  8.50000000E-01  8.50000000E-01  8.50000000E-01  8.00000000E-01  8.50000000E-01
  8.50000000E-01  8.50000000E-01  8.00000000E-01  8.50000000E-01  8.50000000E-01
  8.50000000E-01  8.00000000E-01  8.50000000E-01  8.50000000E-01  8.50000000E-01
  8.00000000E-01  8.50000000E-01  8.50000000E-01  8.50000000E-01  8.00000000E-01
  8.50000000E-01  8.50000000E-01  8.50000000E-01  8.00000000E-01  8.50000000E-01
  8.50000000E-01  8.50000000E-01  8.00000000E-01  8.50000000E-01  8.50000000E-01
  8.50000000E-01  8.00000000E-01  8.50000000E-01  8.50000000E-01  8.50000000E-01
  8.00000000E-01  8.50000000E-01  8.50000000E-01  8.50000000E-01  8.00000000E-01
  8.50000000E-01  8.50000000E-01  8.50000000E-01  8.00000000E-01  8.50000000E-01
  8.50000000E-01  8.50000000E-01  8.00000000E-01  8.50000000E-01  8.50000000E-01
  8.50000000E-01  8.00000000E-01  8.50000000E-01  8.50000000E-01  8.50000000E-01
  8.00000000E-01  8.50000000E-01  8.50000000E-01  8.50000000E-01  8.00000000E-01
  8.50000000E-01  8.50000000E-01  8.50000000E-01  8.00000000E-01  8.50000000E-01
  8.50000000E-01  8.50000000E-01  8.00000000E-01  8.50000000E-01  8.50000000E-01
  8.50000000E-01  8.00000000E-01  8.50000000E-01  8.50000000E-01  8.50000000E-01
  8.00000000E-01  8.50000000E-01  8.50000000E-01  8.50000000E-01  8.00000000E-01
  8.50000000E-01  8.50000000E-01  8.50000000E-01  8.00000000E-01  8.50000000E-01
  8.50000000E-01  8.50000000E-01  8.00000000E-01  8.50000000E-01  8.50000000E-01
  8.50000000E-01  8.00000000E-01  8.50000000E-01  8.50000000E-01  8.50000000E-01
  8.00000000E-01  8.50000000E-01  8.50000000E-01  8.50000000E-01  8.00000000E-01
  8.50000000E-01  8.50000000E-01  8.50000000E-01  8.00000000E-01  8.50000000E-01
  8.50000000E-01  8.50000000E-01  8.00000000E-01  8.50000000E-01  8.50000000E-01
  8.50000000E-01  8.00000000E-01  8.50000000E-01  8.50000000E-01  8.50000000E-01
  8.00000000E-01  8.50000000E-01  8.50000000E-01  8.50000000E-01  8.00000000E-01
  8.50000000E-01  8.50000000E-01  8.50000000E-01  8.00000000E-01  8.50000000E-01
  8.50000000E-01  8.50000000E-01  8.00000000E-01  8.50000000E-01  8.50000000E-01
  8.50000000E-01  8.00000000E-01  8.50000000E-01  8.50000000E-01  8.50000000E-01
  8.00000000E-01  8.50000000E-01  8.50000000E-01  8.50000000E-01  8.00000000E-01
  8.50000000E-01  8.50000000E-01  8.50000000E-01  8.00000000E-01  8.50000000E-01
  8.50000000E-01  8.50000000E-01  8.00000000E-01  8.50000000E-01  8.50000000E-01
  8.50000000E-01  8.00000000E-01  8.50000000E-01  8.50000000E-01  8.50000000E-01
  8.00000000E-01  8.50000000E-01  8.50000000E-01  8.50000000E-01  8.00000000E-01
  8.50000000E-01  8.50000000E-01  8.50000000E-01  8.00000000E-01  8.50000000E-01
  8.50000000E-01  8.50000000E-01  8.00000000E-01  8.50000000E-01  8.50000000E-01
  8.50000000E-01  8.00000000E-01  8.50000000E-01  8.50000000E-01  8.50000000E-01
  8.00000000E-01  8.50000000E-01  8.50000000E-01  8.50000000E-01  8.00000000E-01
  8.50000000E-01  8.50000000E-01  8.50000000E-01  8.00000000E-01  8.50000000E-01
  8.50000000E-01  8.50000000E-01  8.00000000E-01  8.50000000E-01  8.50000000E-01
  8.50000000E-01  8.00000000E-01  8.50000000E-01  8.50000000E-01  8.50000000E-01
  8.00000000E-01  8.50000000E-01  8.50000000E-01  8.50000000E-01  8.00000000E-01
  8.50000000E-01  8.50000000E-01  8.50000000E-01  8.00000000E-01  8.50000000E-01
  8.50000000E-01  8.50000000E-01  8.00000000E-01  8.50000000E-01  8.50000000E-01
  8.50000000E-01  8.00000000E-01  8.50000000E-01  8.50000000E-01  8.50000000E-01
  8.00000000E-01  8.50000000E-01  8.50000000E-01  8.50000000E-01  8.00000000E-01
  8.50000000E-01  8.50000000E-01  8.50000000E-01  8.00000000E-01  8.50000000E-01
  8.50000000E-01  8.50000000E-01  8.00000000E-01  8.50000000E-01  8.50000000E-01
  8.50000000E-01  8.00000000E-01  8.50000000E-01  8.50000000E-01  8.50000000E-01
  8.00000000E-01  8.50000000E-01  8.50000000E-01  8.50000000E-01  8.00000000E-01
  8.50000000E-01  8.50000000E-01  8.50000000E-01  8.00000000E-01  8.50000000E-01
  8.50000000E-01  8.50000000E-01  8.00000000E-01  8.50000000E-01  8.50000000E-01
  8.50000000E-01  8.00000000E-01  8.50000000E-01  8.50000000E-01  8.50000000E-01
  8.00000000E-01  8.50000000E-01  8.50000000E-01  8.50000000E-01  8.00000000E-01
  8.50000000E-01  8.50000000E-01  8.50000000E-01  8.00000000E-01  8.50000000E-01
  8.50000000E-01  8.50000000E-01  8.00000000E-01  8.50000000E-01  8.50000000E-01
  8.50000000E-01  8.00000000E-01  8.50000000E-01  8.50000000E-01  8.50000000E-01
  8.00000000E-01  8.50000000E-01  8.50000000E-01  8.50000000E-01  8.00000000E-01
  8.50000000E-01  8.50000000E-01  8.50000000E-01  8.00000000E-01  8.50000000E-01
  8.50000000E-01  8.50000000E-01  8.00000000E-01  8.50000000E-01  8.50000000E-01
  8.50000000E-01  8.00000000E-01  8.50000000E-01  8.50000000E-01  8.50000000E-01
  8.00000000E-01  8.50000000E-01  8.50000000E-01  8.50000000E-01  8.00000000E-01
  8.50000000E-01  8.50000000E-01  8.50000000E-01  8.00000000E-01  8.50000000E-01
  8.50000000E-01  8.50000000E-01  8.00000000E-01  8.50000000E-01  8.50000000E-01
  8.50000000E-01  8.00000000E-01  8.50000000E-01  8.50000000E-01  8.50000000E-01
  8.00000000E-01  8.50000000E-01  8.50000000E-01  8.50000000E-01  8.00000000E-01
  8.50000000E-01  8.50000000E-01  8.50000000E-01  8.00000000E-01  8.50000000E-01
  8.50000000E-01  8.50000000E-01  8.00000000E-01  8.50000000E-01  8.50000000E-01
  8.50000000E-01  8.00000000E-01  8.50000000E-01  8.50000000E-01  8.50000000E-01
  8.00000000E-01  8.50000000E-01  8.50000000E-01  8.50000000E-01  8.00000000E-01
  8.50000000E-01  8.50000000E-01  8.50000000E-01  8.00000000E-01  8.50000000E-01
  8.50000000E-01  8.50000000E-01  8.00000000E-01  8.50000000E-01  8.50000000E-01
  8.50000000E-01  8.00000000E-01  8.50000000E-01  8.50000000E-01  8.50000000E-01
  8.00000000E-01  8.50000000E-01  8.50000000E-01  8.50000000E-01  8.00000000E-01
  8.50000000E-01  8.50000000E-01  8.50000000E-01  8.00000000E-01  8.50000000E-01
  8.50000000E-01  8.50000000E-01  8.00000000E-01  8.50000000E-01  8.50000000E-01
  8.50000000E-01  8.00000000E-01  8.50000000E-01  8.50000000E-01  8.50000000E-01
  8.00000000E-01  8.50000000E-01  8.50000000E-01  8.50000000E-01  8.00000000E-01
  8.50000000E-01  8.50000000E-01  8.50000000E-01  8.00000000E-01  8.50000000E-01
  8.50000000E-01  8.50000000E-01  8.00000000E-01  8.50000000E-01  8.50000000E-01
  8.50000000E-01  8.00000000E-01  8.50000000E-01  8.50000000E-01  8.50000000E-01
  8.00000000E-01  8.50000000E-01  8.50000000E-01  8.50000000E-01  8.00000000E-01
  8.50000000E-01  8.50000000E-01  8.50000000E-01  8.00000000E-01  8.50000000E-01
  8.50000000E-01  8.50000000E-01  8.00000000E-01  8.50000000E-01  8.50000000E-01
  8.50000000E-01  8.00000000E-01  8.50000000E-01  8.50000000E-01  8.50000000E-01
  8.00000000E-01  8.50000000E-01  8.50000000E-01  8.50000000E-01  8.00000000E-01
  8.50000000E-01  8.50000000E-01  8.50000000E-01  8.00000000E-01  8.50000000E-01
  8.50000000E-01  8.50000000E-01  8.00000000E-01  8.50000000E-01  8.50000000E-01
  8.50000000E-01  8.00000000E-01  8.50000000E-01  8.50000000E-01  8.50000000E-01
  8.00000000E-01  8.50000000E-01  8.50000000E-01  8.50000000E-01  8.00000000E-01
  8.50000000E-01  8.50000000E-01  8.50000000E-01  8.00000000E-01  8.50000000E-01
  8.50000000E-01  8.50000000E-01  8.00000000E-01  8.50000000E-01  8.50000000E-01
  8.50000000E-01  8.00000000E-01  8.50000000E-01  8.50000000E-01  8.50000000E-01
  8.00000000E-01  8.50000000E-01  8.50000000E-01  8.50000000E-01  8.00000000E-01
  8.50000000E-01  8.50000000E-01  8.50000000E-01  8.00000000E-01  8.50000000E-01
  8.50000000E-01  8.50000000E-01  8.00000000E-01  8.50000000E-01  8.50000000E-01
  8.50000000E-01  8.00000000E-01  8.50000000E-01  8.50000000E-01  8.50000000E-01
  8.00000000E-01  8.50000000E-01  8.50000000E-01  8.50000000E-01  8.00000000E-01
%FLAG IPOL                                                                      
%FORMAT(1I8)                                                                    
       0
%FLAG CMAP_COUNT                                                                
%FORMAT(2I8)                                                                    
       1       1                                                                
%FLAG CMAP_RESOLUTION                                                           
%FORMAT(20I4)                                                                   
  24
%FLAG CMAP_PARAMETER_01                                                         
%COMMENT  Ala CMAP                                                              
%FORMAT(8F9.5)                                                                  
 -0.40490 -0.91563 -0.66011 -0.12395  0.67400  1.66712  2.29819  2.59327
  2.26341  1.68604  1.08454  0.71831 -0.48870 -1.12865 -0.92439 -0.34344
  0.32979  0.59769  0.44008 -0.02411 -0.36985 -0.85317 -0.95648 -1.10907
 -0.57095 -0.51404 -0.20974  0.13143  0.76924  1.59233  2.29037  2.67125
  3.36182  2.18892  2.73567  0.45223 -0.65830 -0.99890 -0.71628  0.42576
  0.53333  0.77654  0.66928  0.32986  0.00178 -0.28339 -0.35321 -0.52818
 -0.04441  1.18495  0.28672  0.49834  1.04770  1.74318  2.42981  2.78424
  2.83854  2.61585  1.87191  0.41363 -0.42895 -0.65692  0.55228  0.27728
  0.92789  1.20682  1.03564  0.82326  0.50898  0.23806  0.20869  0.03162
  0.75270  0.92426  0.87815  1.07435  1.34904  1.95311  2.55584  3.01644
  2.98774  2.58246  1.60744  0.42752 -0.30354 -0.31446 -0.03375  0.52111
  1.16914  1.46572  1.98214  1.17058  0.95531  0.70808  0.78722  1.35766
  1.34685  2.28011  1.28633  1.21465  1.51939  2.05226  2.68560  3.11202
  2.91890  2.50948  1.45835  0.41028 -0.10582 -0.34705 -0.04464  0.55547
  1.11301  1.35870  1.48001  1.35541  1.12115  0.95721  1.12820  1.22585
  2.04850  1.37875  1.14784  1.59064  1.72039  1.78908  3.30313  3.04054
  2.98842  2.41992  1.44654  0.52504 -0.06270 -0.27801  0.87234  0.67598
  0.94307  1.15416  1.20141  1.24110  1.26105  1.20805  1.33113  1.49416
  1.04113  0.90852  0.69483  0.85361  1.26559  1.89687  2.63196  4.14974
  2.85712  2.19037  1.16979  0.05713 -0.34982 -0.13111  1.14408  0.72916
  0.83976  0.87834  2.10017  1.17948  1.17775  1.17175  1.28140  1.31313
  0.56020  0.54579  0.70265  1.11648  1.74498  2.34101  3.30438  2.91742
  2.51820  1.80071  0.63368 -0.12153  0.06806  0.72937  1.10420  1.35758
  1.49864  1.53737  1.46180  1.46294  1.03983  0.71730  0.57013  0.61315
  0.24962  0.58339  1.16380  1.97603  2.89121  3.52557  3.68570  3.11960
  2.13455  1.15056  0.41716  0.25190  0.90813  1.46041  1.72423  2.08326
  2.41176  2.51527  2.40584  2.10326  1.06657  0.24926  0.00000  0.09150
  0.69001  1.45869  2.56017  3.51462  4.36327  4.88489  4.44136  3.31773
  1.94048  1.18640  1.14388  1.38827  1.99448  1.97586  2.10793  2.62567
  3.22808  3.67878  3.65514  2.76833  1.09340 -0.02756 -0.20820  0.11394
  2.04863  3.24028  4.45604  5.33890  5.83417  5.62064  4.51400  3.15546
  2.11289  2.12474  2.51205  2.64497  2.21088  1.89502  2.06746  3.01892
  4.17428  5.04288  4.34485  2.58422  0.91721  0.02839  0.38724  1.08963
  3.86396  5.17448  4.99907  4.71176  4.69475  4.40584  3.94871  3.17716
  3.06333  3.67246  4.29338  2.44448  1.35877  2.75298  2.01318  3.50593
  5.09938  4.27559  3.31646  1.97909  0.94467  0.88095  1.62501  2.60184
  5.48793  4.77064  3.78644  3.36104  3.22046  3.45658  3.76845  4.19099
  4.55308  4.85880  2.97166  1.40450  1.55754  1.01694  2.55251  4.15890
  3.59316  2.89015  2.39954  2.03475  2.02513  2.33480  3.18431  4.21056
  4.70559  3.27912  2.28983  1.85924  2.16582  3.20992  4.49444  5.42412
  5.98035  4.20595  2.46249  1.80286  1.41486  2.22339  3.40125  3.01974
  2.06463  1.98502  2.41985  3.03336  3.42492  3.76647  4.58344  5.51267
  2.34028  1.47026  0.70060  0.67110  1.72673  3.69931  5.49162  6.13923
  5.15665  3.78295  2.61455  3.27648  2.23785  2.65327  2.09930  0.98357
  0.83115  1.73620  2.87719  3.88918  4.40086  4.76522  4.34641  3.40891
  0.89883  0.26728  0.50152  0.12164  1.64744  3.66760  4.84258  4.73428
  4.15359  3.27829  2.48102  2.07496  1.77587  1.23018  0.22862 -0.17811
  0.36837  1.62610  2.66752  3.41452  3.43224  3.08090  2.54957  1.61094
  0.32705 -0.14752 -0.38279 -0.00752  1.31062  2.89019  3.39946  3.48428
  3.29026  2.66680  1.96417  1.33230  0.70261 -0.31922 -0.88675 -0.59803
  0.32944  1.32712  1.88494  2.20282  2.13265  1.82079  1.35338  0.71220
 -0.03270 -0.18304 -0.26783  0.12774  0.88323  1.96743  2.18027  2.30248
  2.25909  1.78219  1.00274  0.24927 -0.80554 -1.41955 -1.17733 -0.22422
  1.19834  1.07092  1.05260  0.95885  0.87757  0.60790  0.30853  0.05046
  0.08873  0.15910  0.22294  0.37757  0.76603  1.36872  1.54866  1.47050
  1.32077  0.90501  0.18754 -0.81180 -1.70050 -1.70896 -0.87307 -0.00331
  0.74981  0.73853  0.55032  0.27050 -0.03313 -0.23059 -0.27425 -0.15004
  1.38786  0.31030  0.31376  0.30435  0.69516  1.26684  1.67665  1.73040
  1.48205  0.83164  0.78021 -1.27092 -1.69247 -1.59919 -0.87185  0.23049
  0.75546  0.68419  0.50548  0.18474 -0.18354 -0.22863 -0.03965  0.15614
  1.13038  0.28339  0.13603  0.26411  0.64582  1.31757  2.01140  2.13005
  1.85723  0.94711 -0.10199 -0.99228 -1.35141 -1.23057 -0.39240  0.63569
  1.03002  0.93699  1.12925  0.94167  0.14233  0.14305  0.34318  0.43742
 -0.18145 -0.18129 -0.36426 -0.02774  0.57160  1.29873  2.16831  2.37053
  1.81288  0.84225 -0.13994 -0.87562 -1.03375 -0.75156  0.33665  1.25211
  1.11963  1.00266  0.72525  0.87651  0.22308  0.12905  0.05647 -0.10214
 -1.05110 -0.75879 -0.79562 -0.36879  0.45648  1.36193  2.25739  2.41888
  1.79507  0.83030 -0.09049 -0.76021 -0.87672 -0.19067  0.64936  0.61856
  0.80179  0.82609  0.68948  0.43884 -0.07529 -0.55654 -0.80787 -1.00697
 -1.21902 -1.03039 -0.88255 -0.32105  0.49201  1.53828  2.43182  2.53201
  1.97701  1.22953  0.40353 -0.11048 -0.00493 -0.40512 -0.63562 -0.14764
  0.47545  0.72229  0.59153  0.14907 -0.47001 -0.96318 -1.22829 -1.35376
%FLAG CMAP_INDEX                                                                
%FORMAT(6I8)                                                                    
      11      13      15      21      23       1
