NALA
  4905
  13.4439150  18.3053883  18.9255237  13.6802120  17.4763844  19.4518481
  12.9890969  18.0267110  18.0678642  12.9946184  18.9654701  19.5440090
  14.6776624  18.9445207  18.5144527  14.7152312  18.9970731  17.4263690
  14.7759231  20.3596078  19.0743614  14.7488193  20.3227012  20.1633992
  15.7115356  20.8151127  18.7499467  13.9377466  20.9538875  18.7105057
  15.8888526  18.1647409  19.0058239  15.7439780  17.1351631  19.6611262
  17.0874044  18.6588329  18.6871211  17.1555706  19.5090309  18.1461810
  18.3166246  18.0093687  19.0955524  18.3560829  17.9564920  20.1835534
  18.4018104  16.5935127  18.5354456  18.3726835  16.6306564  17.4464680
  19.3342618  16.1301716  18.8578581  17.5594596  16.0062819  18.9011013
  19.5332582  18.7789652  18.6015806  19.3956221  19.8097288  17.9465821
  20.7283030  18.2748325  18.9177181  20.7904934  17.4240871  19.4585176
  21.9620504  18.9139658  18.5066485  21.9996193  18.9665207  17.4185650
  22.0603111  20.3290517  19.0665603  22.0332073  20.2921427  20.1555981
  22.9959236  20.7845573  18.7421467  21.2221346  20.9233322  18.7027060
  23.1732406  18.1341849  18.9980180  23.0283660  17.1046056  19.6533180
  24.3108853  18.5246049  18.7454781  30.0800113  19.1682753  24.4814083
  29.8350113  19.6562753  23.8014083  30.9430113  19.0952753  24.3814083
  30.1710113  19.2292753  24.3664083  29.8890113  26.0842753  29.1524083
  29.3650113  26.6802753  29.5154083  30.2860113  25.7162753  29.8364083
  29.8700113  26.1182753  29.3074083  19.7580113  30.2242753  24.6084083
  19.3170113  30.3422753  25.3514083  19.4750113  29.4492753  24.3234083
  19.6510113  30.1272753  24.6764083  19.5010113  24.0162753  21.1154083
  18.7230113  24.1782753  20.7554083  19.5400113  23.1452753  21.1374083
  19.3920113  23.9112753  21.0654083  22.6400113  29.2792753  19.7874083
  22.2480113  28.9082753  19.1014083  22.5600113  28.6812753  20.4164083
  22.5700113  29.1362753  19.7784083  32.5600113  27.1512753  25.8284083
  32.6400113  27.1552753  24.9594083  31.9760113  26.5192753  25.9774083
  32.4850113  27.0582753  25.7224083  22.2670113  30.9202753  23.6874083
  22.8750113  30.7502753  24.2904083  21.5160113  30.7802753  24.1084083
  22.2460113  30.8742753  23.8384083  26.5490113  20.2552753  23.6364083
  26.4790113  20.9322753  23.0904083  27.2900113  19.8672753  23.3874083
  26.6480113  20.2982753  23.5184083  21.1580113  34.0112753  19.7644083
  21.6250113  34.0952753  19.0324083  21.6130113  33.4332753  20.2334083
  21.2940113  33.9382753  19.7254083  19.6980113  32.9592753  30.8634083
  19.8270113  32.6792753  31.6794083  19.0880113  32.4182753  30.5544083
  19.6270113  32.8382753  30.9384083  21.1440113  27.4802753  25.0654083
  20.6820113  27.0882753  24.4384083  21.8440113  26.9672753  25.1574083
  21.1790113  27.3472753  24.9864083  25.6520113  23.0902753  30.4124083
  26.3300113  23.1082753  29.8634083  25.6070113  22.2542753  30.6574083
  25.7450113  22.9692753  30.3674083  26.2540113  33.6762753  33.1934083
  26.3920113  34.4362753  32.7864083  27.0450113  33.3112753  33.2204083
  26.3910113  33.7352753  33.1374083  23.1450113  25.5802753  25.0884083
  23.9620113  25.3932753  25.3314083  22.6680113  24.9662753  25.4844083
  23.1950113  25.4622753  25.1834083  27.3490113  31.5612753  27.6984083
  27.6970113  30.7622753  27.7284083  28.0140113  32.0652753  27.4434083
  27.4990113  31.5172753  27.6654083  27.4060113  31.0102753  23.9094083
  27.7370113  30.3662753  24.3954083  27.6460113  30.7992753  23.0984083
  27.4900113  30.8842753  23.8614083  29.3740113  25.1412753  35.2484083
  28.5260113  25.0422753  35.0704083  29.4030113  25.8862753  35.7024083
  29.2530113  25.2372753  35.2894083  23.7420113  20.6742753  24.3544083
  23.4460113  21.1752753  23.7044083  24.6090113  20.7522753  24.2974083
  23.8260113  20.7602753  24.2504083  33.9320113  18.1012753  34.3624083
  33.7740113  18.8702753  33.9804083  33.1600113  17.8812753  34.7064083
  33.7940113  18.1822753  34.3574083  26.7210113  19.8162753  26.5774083
  26.7940113  20.6762753  26.7064083  26.6830113  19.7412753  25.7094083
  26.7260113  19.9322753  26.4684083  31.3940113  22.7422753  18.8764083
  30.9440113  23.4232753  19.1834083  31.5080113  22.2382753  19.5794083
  31.3450113  22.7682753  19.0254083  19.6000113  25.2412753  28.0784083
  19.3440113  26.0722753  28.0034083  18.9360113  24.8582753  28.4954083
  19.4640113  25.3072753  28.1294083  19.5100113  34.9512753  25.9784083
  18.9180113  35.5092753  25.6654083  19.9360113  34.6822753  25.2664083
  19.4860113  34.9932753  25.8274083  25.3500113  32.7952753  23.4584083
  24.7710113  32.5202753  24.0504083  25.9740113  32.1862753  23.4834083
  25.3570113  32.6652753  23.5494083  31.4930113  35.0832753  20.9804083
  32.2200113  35.5552753  21.0824083  31.7220113  34.2892753  21.2604083
  31.6350113  35.0362753  21.0374083  22.6290113  20.0582753  28.5694083
  22.1080113  19.4302753  28.2614083  23.2200113  19.6212753  29.0404083
  22.6400113  19.9002753  28.5934083  21.0550113  33.6212753  23.9094083
  21.7110113  33.0462753  23.9244083  21.4440113  34.3702753  23.6884083
  21.2100113  33.6462753  23.8794083  21.8730113  32.1082753  27.4094083
  22.2960113  31.7522753  26.7354083  22.1970113  31.6862753  28.1014083
  21.9830113  31.9932753  27.4124083  28.9110113  24.3572753  24.7924083
  29.1980113  24.1252753  24.0024083  29.6430113  24.4362753  25.2614083
  29.0610113  24.3342753  24.7454083  29.6330113  24.6962753  19.9134083
  29.9140113  25.4842753  20.1624083  28.8570113  24.8612753  19.5504083
  29.5600113  24.8372753  19.8964083  19.0160113  22.3362753  34.4374083
  19.0120113  22.9232753  35.0834083  19.6100113  22.6482753  33.8804083
  19.1030113  22.4692753  34.4504083  31.3540113  32.6702753  34.9794083
  31.3200113  33.0522753  35.7634083  32.2080113  32.6282753  34.8084083
  31.4750113  32.7202753  35.0704083  28.4920113  32.8672753  19.7294083
  28.3110113  33.4122753  20.3864083  29.2580113  33.1572753  19.4284083
  28.5780113  32.9912753  19.7824083  31.9990113  20.7632753  20.7834083
  32.5390113  20.0812753  20.8594083  32.0610113  21.1612753  21.5574083
  32.0880113  20.7212753  20.9094083  19.9530113  21.9312753  23.3524083
  19.8390113  21.0672753  23.3834083  19.4780113  22.2252753  24.0224083
  19.8660113  21.8472753  23.4554083  22.0950113  34.3412753  31.5674083
  21.3970113  33.8332753  31.6934083  22.3550113  34.1362753  30.7594083
  22.0300113  34.2362753  31.4664083  29.2570113  23.1392753  22.0974083
  28.7490113  22.4772753  21.8434083  29.3090113  23.6432753  21.3874083
  29.1900113  23.1162753  21.9554083  29.2570113  20.0802753  21.9884083
  28.8020113  19.6782753  21.3624083  30.0300113  20.2352753  21.6134083
  29.3040113  20.0442753  21.8404083  27.8550113  22.4472753  26.5104083
  27.9290113  23.0152753  25.8524083  27.9760113  22.9392753  27.2204083
  27.8830113  22.6042753  26.5184083  33.0800113  32.2822753  24.9224083
  33.7810113  31.8002753  25.1114083  32.4200113  31.7132753  24.9674083
  33.0860113  32.1272753  24.9564083  23.4560113  33.1922753  34.1344083
  24.2970113  33.2552753  33.9124083  23.4190113  33.5892753  34.9104083
  23.5750113  33.2602753  34.2164083  22.4630113  18.2702753  24.8584083
  22.9990113  18.9582753  24.8484083  22.4660113  17.9962753  24.0304083
  22.5420113  18.3312753  24.7344083  25.4190113  28.7032753  28.8834083
  25.5910113  28.4932753  29.7124083  24.7640113  28.1692753  28.6674083
  25.3480113  28.5932753  28.9744083  31.6470113  22.6172753  32.3984083
  31.5520113  22.9362753  33.2044083  31.0540113  21.9782753  32.3604083
  31.5450113  22.5692753  32.5124083  26.1690113  28.6412753  31.4734083
  26.2220113  29.4882753  31.6754083  25.8840113  28.2712753  32.2104083
  26.1350113  28.7112753  31.6114083  32.3460113  29.3362753  30.6034083
  31.8320113  28.9242753  31.1744083  32.2200113  30.1802753  30.7844083
  32.2520113  29.4002753  30.7144083  32.9030113  18.5612753  25.2344083
  32.9520113  18.2432753  26.0454083  33.2260113  17.9172753  24.7414083
  32.9580113  18.4192753  25.2814083  22.9110113  22.0802753  26.5124083
  23.1830113  21.6502753  25.8044083  22.7350113  21.4442753  27.0834083
  22.9250113  21.9232753  26.4924083  22.7350113  29.5072753  26.0614083
  23.5860113  29.4272753  25.8884083  22.3780113  28.8252753  25.6494083
  22.8080113  29.3942753  25.9744083  21.0520113  23.1822753  29.5944083
  21.8950113  23.4022753  29.5514083  20.6630113  23.7552753  29.0634083
  21.1190113  23.2992753  29.5094083  33.4940113  26.3122753  20.3154083
  33.2740113  27.0432753  19.8934083  33.0460113  26.3632753  21.0624083
  33.3950113  26.4272753  20.3634083  25.1030113  29.5142753  24.2964083
  25.8160113  30.0092753  24.3864083  25.3250113  28.9472753  23.6704083
  25.2410113  29.5032753  24.2174083  19.2590113  31.1572753  27.6164083
  18.5920113  31.6452753  27.8924083  19.9390113  31.7022753  27.6454083
  19.2610113  31.3092753  27.6614083  19.3250113  27.8412753  22.7194083
  19.1400113  27.0022753  22.8714083  19.9840113  27.8052753  22.1494083
  19.3950113  27.7122753  22.6574083  29.6260113  33.2172753  26.6234083
  29.1030113  33.8512753  26.3304083  29.9360113  32.8532753  25.8944083
  29.5940113  33.2572753  26.4724083  19.4970113  32.0052753  22.2944083
  20.0490113  32.5742753  22.6584083  19.2650113  31.4902753  22.9594083
  19.5440113  32.0132753  22.4464083  23.7010113  31.0052753  29.3834083
  24.1680113  31.2942753  30.0614083  24.2730113  30.5272753  28.9294083
  23.8550113  30.9772753  29.4164083  32.1370113  23.0192753  27.1204083
  32.4810113  23.1712753  27.9074083  31.6840113  22.2812753  27.2334083
  32.1210113  22.9322753  27.2534083  19.3270113  30.4542753  19.9224083
  20.0830113  30.0222753  19.9804083  19.3420113  30.9862753  20.6134083
  19.4410113  30.4692753  20.0334083  20.2670113  28.6752753  27.9274083
  20.6980113  28.5462753  27.1804083  20.0620113  29.5232753  27.9014083
  20.3000113  28.7812753  27.8134083  26.6130113  22.2392753  21.5774083
  26.6110113  22.1222753  20.7124083  26.4320113  23.0872753  21.6694083
  26.5860113  22.3472753  21.4634083  35.6670113  34.6662753  33.0744083
  34.9960113  35.1802753  33.2924083  35.7300113  34.7662753  32.2104083
  35.5770113  34.7572753  32.9794083  24.3510113  32.1912753  26.2094083
  24.4770113  33.0342753  26.3964083  25.0190113  31.7922753  26.6054083
  24.4690113  32.2572753  26.2954083  22.9660113  25.0712753  21.2114083
  22.8380113  24.6232753  21.9494083  22.3840113  24.7292753  20.6594083
  22.8610113  24.9542753  21.2394083  23.1330113  26.9012753  27.8104083
  22.3520113  26.8422753  27.4274083  23.2050113  26.1492753  28.2474083
  23.0280113  26.7822753  27.8184083  23.5630113  26.6382753  31.2784083
  23.5880113  25.9632753  30.7274083  22.9170113  27.1342753  30.9664083
  23.4720113  26.6112753  31.1514083  33.4580113  24.3512753  29.6744083
  32.7960113  24.6792753  30.1374083  33.6450113  24.9852753  29.1054083
  33.3880113  24.4932753  29.6584083  30.1030113  20.2572753  33.1034083
  30.2520113  19.4322753  32.8604083  30.4820113  20.3122753  33.8874083
  30.1810113  20.1432753  33.1834083  31.6510113  22.3202753  23.1854083
  32.1410113  23.0372753  23.1084083  30.8610113  22.5812753  22.9224083
  31.6070113  22.4642753  23.1354083  32.9650113  30.1982753  35.0954083
  33.4490113  30.9162753  35.1934083  33.3590113  29.7712753  34.4444083
  33.0950113  30.2412753  35.0134083  28.2330113  23.7902753  28.9104083
  28.7130113  24.4892753  29.1184083  28.6060113  23.1432753  29.3614083
  28.3590113  23.7982753  29.0074083  30.4220113  26.9592753  21.1844083
  30.4140113  27.6812753  20.6944083  29.7830113  27.0942753  21.7614083
  30.3270113  27.0862753  21.1974083  35.3940113  30.8292753  25.1654083
  35.7500113  30.4792753  25.8804083  35.3860113  30.1682753  24.5954083
  35.4460113  30.6792753  25.1864083  31.4390113  33.8952753  29.0094083
  30.8360113  33.5992753  28.4524083  31.9840113  34.3472753  28.5004083
  31.4300113  33.9182753  28.8514083  31.4520113  30.7462753  28.4094083
  30.6550113  30.9702753  28.6834083  31.7100113  30.1522753  28.9944083
  31.3720113  30.6912753  28.5364083  25.3440113  35.5582753  22.8574083
  25.1970113  34.7822753  23.2284083  26.0330113  35.4112753  22.3424083
  25.4240113  35.4212753  22.8364083  34.7120113  28.7442753  33.2554083
  34.7670113  28.8692753  32.3934083  35.4650113  29.0642753  33.5574083
  34.8310113  28.8092753  33.1724083  22.1370113  27.6082753  22.0884083
  22.4610113  26.8292753  21.8664083  22.7830113  27.9762753  22.5434083
  22.2800113  27.5472753  22.1224083  30.4430113  28.5502753  32.8554083
  30.2880113  29.1602753  33.4594083  30.9770113  27.9922753  33.2614083
  30.4990113  28.5582753  33.0044083  19.1340113  19.2692753  23.0564083
  19.2630113  18.5612753  22.5644083  18.7670113  18.9512753  23.7814083
  19.0990113  19.1172753  23.0914083  28.8270113  26.9502753  23.5134083
  28.8860113  27.6002753  24.0924083  28.6380113  26.2542753  24.0044083
  28.8080113  26.9432753  23.6714083  34.0530113  31.2792753  29.3824083
  33.5740113  31.5772753  28.7164083  33.6970113  30.5032753  29.5604083
  33.9300113  31.2082753  29.3104083  28.0500113  28.9972753  27.9444083
  27.2030113  28.8032753  28.0254083  28.3740113  28.8322753  28.7374083
  27.9720113  28.9442753  28.0734083  21.8980113  28.6902753  30.2604083
  22.6200113  29.1782753  30.2234083  21.6280113  28.6602753  29.4314083
  21.9650113  28.7582753  30.1324083  25.1280113  23.8612753  26.9954083
  25.9740113  23.6712753  27.0934083  24.7580113  23.0842753  26.8574083
  25.1980113  23.7182753  26.9894083  19.9490113  25.1992753  23.6504083
  20.4380113  24.9072753  24.3114083  20.0780113  24.6062753  23.0234083
  20.0400113  25.0682753  23.6554083  34.9840113  28.2212753  30.5014083
  34.9770113  27.4452753  30.8994083  34.1430113  28.4552753  30.4944083
  34.8590113  28.1412753  30.5594083  24.4740113  26.6332753  19.1364083
  23.8640113  26.2282753  19.6104083  24.0880113  26.7512753  18.3634083
  24.3270113  26.5902753  19.0924083  21.2930113  29.7422753  34.5384083
  20.8720113  29.2242753  33.9774083  20.9410113  30.5282753  34.3954083
  21.1790113  29.7822753  34.4344083  25.9290113  25.0942753  21.8464083
  26.2010113  25.9202753  21.9134083  25.0660113  25.1692753  21.7504083
  25.8420113  25.2272753  21.8414083  19.4090113  21.0642753  28.3824083
  19.4530113  21.4082753  27.5814083  20.1640113  21.3012753  28.7494083
  19.5270113  21.1502753  28.3184083  34.6620113  26.1042753  34.9194083
  34.9810113  26.8902753  35.1224083  34.2920113  25.8342753  35.6624083
  34.6550113  26.1802753  35.0594083  33.9760113  32.5282753  20.4494083
  34.3100113  31.7222753  20.4844083  33.2210113  32.4562753  20.8794083
  33.9140113  32.3982753  20.5184083  34.4580113  24.3622753  26.1084083
  33.7130113  24.0392753  26.4264083  34.4600113  25.1882753  26.3884083
  34.3480113  24.4362753  26.1964083  31.3500113  30.4032753  19.8524083
  32.0340113  29.8892753  19.6834083  30.9330113  30.4492753  19.0874083
  31.3890113  30.3342753  19.7144083  26.0320113  31.5532753  31.1564083
  25.7340113  32.1452753  31.7234083  26.0870113  31.9952753  30.4074083
  25.9960113  31.7062753  31.1294083  24.0110113  30.5032753  34.5544083
  23.2050113  30.2132753  34.7214083  23.9220113  31.3712753  34.5604083
  23.8790113  30.5882753  34.5794083  33.3700113  20.6922753  33.5694083
  34.1140113  21.1442753  33.5064083  32.8040113  21.1622753  33.1004083
  33.3970113  20.8292753  33.4914083  28.5480113  27.9762753  30.6474083
  29.0240113  28.3502753  31.2754083  27.7250113  28.1102753  30.9064083
  28.4970113  28.0512753  30.7784083  25.2580113  23.5792753  33.3884083
  25.4190113  22.8352753  33.8154083  25.2130113  23.3302753  32.5534083
  25.2750113  23.4322753  33.3284083  34.6550113  18.6722753  31.2394083
  34.3750113  19.4972753  31.1954083  35.3710113  18.7252753  31.7354083
  34.7200113  18.8022753  31.3064083  27.0100113  19.3872753  33.2684083
  27.7150113  19.7072753  32.8664083  27.2510113  18.5802753  33.4954083
  27.1490113  19.3152753  33.2424083  25.9950113  33.5972753  29.2644083
  25.3710113  34.1792753  29.0824083  26.2430113  33.3112753  28.4784083
  25.9390113  33.6412753  29.1214083  34.2130113  32.7812753  34.7574083
  34.5590113  33.0512753  35.5114083  34.5070113  33.3632753  34.1774083
  34.3080113  32.9072753  34.7834083  27.5890113  28.3732753  19.1794083
  26.7840113  28.1962753  18.8944083  27.5560113  29.2242753  19.3714083
  27.4650113  28.4722753  19.1664083  23.5190113  24.4402753  29.3294083
  23.9590113  24.3372753  28.5834083  24.0640113  24.1272753  29.9344083
  23.6640113  24.3792753  29.3084083  31.5350113  23.5422753  34.9214083
  30.8870113  24.0122753  35.2694083  32.1000113  23.4532753  35.5804083
  31.5230113  23.5982753  35.0704083  31.2230113  25.0792753  31.2194083
  31.5250113  25.4992753  31.9224083  31.2590113  24.2392753  31.4514083
  31.2730113  25.0172753  31.3574083  28.6480113  35.2462753  35.1444083
  29.1260113  34.6462753  34.7284083  28.2970113  34.8032753  35.8094083
  28.6670113  35.0922753  35.1814083  33.7710113  24.5262753  23.4714083
  33.9780113  24.3252753  24.2954083  34.5270113  24.7942753  23.1294083
  33.9130113  24.5362753  23.5424083  27.0660113  19.4252753  29.3764083
  26.2400113  19.2762753  29.6134083  27.0260113  19.4602753  28.5054083
  26.9380113  19.4082753  29.2824083  34.7930113  20.6092753  24.9454083
  34.0790113  20.1382753  25.1164083  34.6310113  20.9502753  24.1594083
  34.6640113  20.5902753  24.8544083  35.2360113  28.5532753  23.3254083
  35.7120113  27.8242753  23.2774083  34.4150113  28.2672753  23.2494083
  35.1850113  28.4032753  23.3064083  28.7070113  30.4652753  34.1644083
  27.9120113  30.4012753  34.5154083  28.7780113  31.3122753  33.9694083
  28.6000113  30.5802753  34.1874083  19.6310113  19.8232753  35.4114083
  19.4910113  20.6182753  35.0804083  18.8450113  19.5802753  35.7004083
  19.4940113  19.9052753  35.4054083  22.6950113  22.5672753  22.6364083
  22.8210113  22.2382753  21.8384083  21.8830113  22.3182753  22.8354083
  22.5940113  22.4822753  22.5484083  31.4520113  29.7202753  25.6804083
  31.5280113  30.0612753  26.4794083  31.6210113  28.8732753  25.8014083
  31.4880113  29.6452753  25.8164083  28.9740113  28.9942753  25.2454083
  28.6760113  28.6792753  26.0024083  29.6690113  29.4672753  25.4804083
  29.0330113  29.0172753  25.3924083  29.1960113  33.1122753  33.2724083
  29.8830113  32.9982753  33.7974083  29.3300113  33.9032753  32.9284083
  29.3170113  33.2122753  33.2994083  31.8850113  26.3862753  33.6594083
  31.6300113  25.6672753  34.0814083  32.7060113  26.5022753  33.9294083
  31.9690113  26.2972753  33.7614083  29.6040113  31.0402753  30.7054083
  28.9100113  31.4422753  31.0484083  30.2810113  31.4732753  31.0444083
  29.6010113  31.1632753  30.8064083  22.6720113  24.5782753  33.0524083
  23.0470113  25.1972753  32.5654083  23.3460113  24.1042753  33.3374083
  22.8270113  24.6002753  33.0224083  20.4470113  23.0262753  32.3274083
  20.5240113  22.8572753  31.4744083  21.1930113  23.4322753  32.5244083
  20.5680113  23.0612753  32.2304083  23.0010113  20.4362753  34.7384083
  22.9200113  19.5922753  34.9444083  22.6870113  20.4802753  33.9254083
  22.9430113  20.3182753  34.6484083  29.9260113  32.6312753  23.8744083
  29.7210113  33.4642753  23.7154083  29.1510113  32.2492753  23.9964083
  29.7810113  32.6982753  23.8694083  35.1080113  25.8122753  32.1234083
  35.1060113  24.9492753  32.2474083  35.1750113  26.1362753  32.9304083
  35.1180113  25.7322753  32.2604083  19.8440113  28.2522753  32.5514083
  20.1640113  28.4712753  31.7704083  19.7440113  27.3872753  32.4964083
  19.8760113  28.1572753  32.4284083  29.9810113  20.8022753  26.7594083
  29.2810113  21.3202753  26.7034083  30.0190113  20.4222753  25.9754083
  29.8830113  20.8232753  26.6354083  25.2880113  32.8932753  20.2834083
  25.7290113  32.9732753  21.0314083  24.4830113  32.6772753  20.5414083
  25.2340113  32.8732753  20.4324083  33.5790113  21.3182753  29.5594083
  34.4340113  21.4172753  29.7044083  33.2100113  21.8712753  30.1244083
  33.6510113  21.4152753  29.6644083  24.6070113  27.5442753  33.9364083
  24.2110113  28.3182753  34.0114083  24.2010113  27.1712753  33.2604083
  24.4890113  27.6032753  33.8474083  33.8830113  26.5982753  28.0504083
  34.5490113  27.1392753  28.2104083  33.5380113  26.9092753  27.3114083
  33.9300113  26.7242753  27.9654083  34.1960113  34.6642753  23.8574083
  34.0220113  34.0102753  24.4074083  34.9090113  34.3932753  23.4344083
  34.2760113  34.5272753  23.8764083  22.6170113  31.9632753  20.8844083
  22.3730113  31.6562753  21.6644083  22.5840113  31.2602753  20.3684083
  22.5760113  31.8142753  20.9234083  25.4360113  30.2082753  19.6274083
  24.6180113  29.9402753  19.7674083  25.4080113  31.0602753  19.8124083
  25.3110113  30.2952753  19.6754083  25.0360113  20.5212753  31.3864083
  24.1720113  20.6052753  31.4664083  25.2560113  20.0072753  32.0554083
  24.9410113  20.4582753  31.4974083  29.1390113  21.2692753  29.7604083
  28.4020113  20.8152753  29.8734083  29.7100113  20.8672753  30.2834083
  29.1140113  21.1422753  29.8544083  31.8710113  32.1172753  31.5484083
  32.0770113  32.4182753  32.3404083  31.8100113  32.8392753  31.0634083
  31.8920113  32.2682753  31.5934083  26.6420113  25.5982753  34.9644083
  26.3200113  25.0222753  34.3944083  26.2830113  26.3532753  34.7184083
  26.5420113  25.6242753  34.8444083  34.7880113  34.0162753  29.8034083
  35.3150113  33.9332753  29.1124083  34.3970113  33.2382753  29.8574083
  34.8080113  33.8892753  29.7094083  22.2560113  20.6042753  32.0344083
  21.9130113  19.8372753  31.8004083  21.5610113  21.1282753  32.0984083
  22.1030113  20.5682753  32.0094083  31.3020113  19.4602753  29.0114083
  31.9720113  20.0042753  29.1384083  30.7990113  19.8842753  28.4384083
  31.3270113  19.6032753  28.9454083  30.6610113  25.2682753  26.5044083
  31.2120113  24.6612753  26.8044083  30.2360113  25.5312753  27.2194083
  30.6800113  25.2172753  26.6534083  20.9090113  23.9182753  25.9904083
  20.5410113  24.2202753  26.7214083  21.4430113  23.2892753  26.2744083
  20.9330113  23.8702753  26.1404083  20.5970113  32.3262753  33.5014083
  20.0230113  32.7422753  34.0104083  21.3300113  32.7912753  33.5964083
  20.6210113  32.4562753  33.5904083  32.6310113  27.0992753  23.0664083
  32.6990113  26.2492753  23.2474083  31.8080113  27.1852753  22.7884083
  32.5190113  26.9862753  23.0524083  26.5500113  27.9902753  22.0044083
  26.6500113  28.1292753  21.1494083  27.3680113  27.9302753  22.3004083
  26.6850113  28.0012753  21.9214083  31.7850113  32.3192753  21.8064083
  31.5340113  32.1912753  22.6324083  31.4680113  31.6242753  21.3854083
  31.7010113  32.1982753  21.8664083  25.6890113  20.9652753  35.1204083
  25.9230113  20.3892753  34.5074083  24.8470113  20.7842753  35.2614083
  25.5990113  20.8532753  35.0504083  23.0700113  34.4082753  28.7534083
  22.9910113  33.5982753  28.4374083  22.6260113  34.8952753  28.1814083
  22.9930113  34.3602753  28.6224083  28.6710113  30.5272753  21.2364083
  29.3880113  30.1802753  20.8804083  28.6370113  31.3272753  20.8884083
  28.7720113  30.5942753  21.1324083  30.0800113  19.1682753   5.4751673
  29.8350113  19.6562753   4.7951673  30.9430113  19.0952753   5.3751673
  30.1710113  19.2292753   5.3601673  29.8890113  26.0842753  10.1461673
  29.3650113  26.6802753  10.5091673  30.2860113  25.7162753  10.8301673
  29.8700113  26.1182753  10.3011673  19.7580113  30.2242753   5.6021673
  19.3170113  30.3422753   6.3451673  19.4750113  29.4492753   5.3171673
  19.6510113  30.1272753   5.6701673  19.5010113  24.0162753   2.1091673
  18.7230113  24.1782753   1.7491673  19.5400113  23.1452753   2.1311673
  19.3920113  23.9112753   2.0591673  32.5600113  27.1512753   6.8221673
  32.6400113  27.1552753   5.9531673  31.9760113  26.5192753   6.9711673
  32.4850113  27.0582753   6.7161673  22.2670113  30.9202753   4.6811673
  22.8750113  30.7502753   5.2841673  21.5160113  30.7802753   5.1021673
  22.2460113  30.8742753   4.8321673  26.5490113  20.2552753   4.6301673
  26.4790113  20.9322753   4.0841673  27.2900113  19.8672753   4.3811673
  26.6480113  20.2982753   4.5121673  19.6980113  32.9592753  11.8571673
  19.8270113  32.6792753  12.6731673  19.0880113  32.4182753  11.5481673
  19.6270113  32.8382753  11.9321673  26.2720113  30.4842753  16.9241673
  26.0360113  30.4812753  17.7641673  25.5240113  30.3362753  16.5001673
  26.1260113  30.4612753  16.9851673  21.1440113  27.4802753   6.0591673
  20.6820113  27.0882753   5.4321673  21.8440113  26.9672753   6.1511673
  21.1790113  27.3472753   5.9801673  25.6520113  23.0902753  11.4061673
  26.3300113  23.1082753  10.8571673  25.6070113  22.2542753  11.6511673
  25.7450113  22.9692753  11.3611673  26.2540113  33.6762753  14.1871673
  26.3920113  34.4362753  13.7801673  27.0450113  33.3112753  14.2141673
  26.3910113  33.7352753  14.1311673  23.1450113  25.5802753   6.0821673
  23.9620113  25.3932753   6.3251673  22.6680113  24.9662753   6.4781673
  23.1950113  25.4622753   6.1771673  27.3490113  31.5612753   8.6921673
  27.6970113  30.7622753   8.7221673  28.0140113  32.0652753   8.4371673
  27.4990113  31.5172753   8.6591673  27.4060113  31.0102753   4.9031673
  27.7370113  30.3662753   5.3891673  27.6460113  30.7992753   4.0921673
  27.4900113  30.8842753   4.8551673  29.3740113  25.1412753  16.2421673
  28.5260113  25.0422753  16.0641673  29.4030113  25.8862753  16.6961673
  29.2530113  25.2372753  16.2831673  23.7420113  20.6742753   5.3481673
  23.4460113  21.1752753   4.6981673  24.6090113  20.7522753   5.2911673
  23.8260113  20.7602753   5.2441673  33.9320113  18.1012753  15.3561673
  33.7740113  18.8702753  14.9741673  33.1600113  17.8812753  15.7001673
  33.7940113  18.1822753  15.3511673  26.7210113  19.8162753   7.5711673
  26.7940113  20.6762753   7.7001673  26.6830113  19.7412753   6.7031673
  26.7260113  19.9322753   7.4621673  19.6000113  25.2412753   9.0721673
  19.3440113  26.0722753   8.9971673  18.9360113  24.8582753   9.4891673
  19.4640113  25.3072753   9.1231673  19.5100113  34.9512753   6.9721673
  18.9180113  35.5092753   6.6591673  19.9360113  34.6822753   6.2601673
  19.4860113  34.9932753   6.8211673  25.3500113  32.7952753   4.4521673
  24.7710113  32.5202753   5.0441673  25.9740113  32.1862753   4.4771673
  25.3570113  32.6652753   4.5431673  31.4930113  35.0832753   1.9741673
  32.2200113  35.5552753   2.0761673  31.7220113  34.2892753   2.2541673
  31.6350113  35.0362753   2.0311673  22.6290113  20.0582753   9.5631673
  22.1080113  19.4302753   9.2551673  23.2200113  19.6212753  10.0341673
  22.6400113  19.9002753   9.5871673  21.0550113  33.6212753   4.9031673
  21.7110113  33.0462753   4.9181673  21.4440113  34.3702753   4.6821673
  21.2100113  33.6462753   4.8731673  21.8730113  32.1082753   8.4031673
  22.2960113  31.7522753   7.7291673  22.1970113  31.6862753   9.0951673
  21.9830113  31.9932753   8.4061673  28.3170113  19.4312753  17.0131673
  28.4950113  18.6222753  16.7381673  28.1740113  19.8722753  16.2741673
  28.3220113  19.3772753  16.8631673  28.9110113  24.3572753   5.7861673
  29.1980113  24.1252753   4.9961673  29.6430113  24.4362753   6.2551673
  29.0610113  24.3342753   5.7391673  19.0160113  22.3362753  15.4311673
  19.0120113  22.9232753  16.0771673  19.6100113  22.6482753  14.8741673
  19.1030113  22.4692753  15.4441673  31.3540113  32.6702753  15.9731673
  31.3200113  33.0522753  16.7571673  32.2080113  32.6282753  15.8021673
  31.4750113  32.7202753  16.0641673  31.9990113  20.7632753   1.7771673
  32.5390113  20.0812753   1.8531673  32.0610113  21.1612753   2.5511673
  32.0880113  20.7212753   1.9031673  19.9530113  21.9312753   4.3461673
  19.8390113  21.0672753   4.3771673  19.4780113  22.2252753   5.0161673
  19.8660113  21.8472753   4.4491673  22.0950113  34.3412753  12.5611673
  21.3970113  33.8332753  12.6871673  22.3550113  34.1362753  11.7531673
  22.0300113  34.2362753  12.4601673  29.2570113  23.1392753   3.0911673
  28.7490113  22.4772753   2.8371673  29.3090113  23.6432753   2.3811673
  29.1900113  23.1162753   2.9491673  29.2570113  20.0802753   2.9821673
  28.8020113  19.6782753   2.3561673  30.0300113  20.2352753   2.6071673
  29.3040113  20.0442753   2.8341673  27.8550113  22.4472753   7.5041673
  27.9290113  23.0152753   6.8461673  27.9760113  22.9392753   8.2141673
  27.8830113  22.6042753   7.5121673  33.0800113  32.2822753   5.9161673
  33.7810113  31.8002753   6.1051673  32.4200113  31.7132753   5.9611673
  33.0860113  32.1272753   5.9501673  23.4560113  33.1922753  15.1281673
  24.2970113  33.2552753  14.9061673  23.4190113  33.5892753  15.9041673
  23.5750113  33.2602753  15.2101673  22.4630113  18.2702753   5.8521673
  22.9990113  18.9582753   5.8421673  22.4660113  17.9962753   5.0241673
  22.5420113  18.3312753   5.7281673  25.4190113  28.7032753   9.8771673
  25.5910113  28.4932753  10.7061673  24.7640113  28.1692753   9.6611673
  25.3480113  28.5932753   9.9681673  31.6470113  22.6172753  13.3921673
  31.5520113  22.9362753  14.1981673  31.0540113  21.9782753  13.3541673
  31.5450113  22.5692753  13.5061673  26.1690113  28.6412753  12.4671673
  26.2220113  29.4882753  12.6691673  25.8840113  28.2712753  13.2041673
  26.1350113  28.7112753  12.6051673  32.3460113  29.3362753  11.5971673
  31.8320113  28.9242753  12.1681673  32.2200113  30.1802753  11.7781673
  32.2520113  29.4002753  11.7081673  32.9030113  18.5612753   6.2281673
  32.9520113  18.2432753   7.0391673  33.2260113  17.9172753   5.7351673
  32.9580113  18.4192753   6.2751673  18.9900113  33.0122753  18.6781673
  19.7460113  33.3612753  18.9361673  19.1670113  32.1592753  18.6211673
  19.1280113  32.9372753  18.7081673  22.9110113  22.0802753   7.5061673
  23.1830113  21.6502753   6.7981673  22.7350113  21.4442753   8.0771673
  22.9250113  21.9232753   7.4861673  22.7350113  29.5072753   7.0551673
  23.5860113  29.4272753   6.8821673  22.3780113  28.8252753   6.6431673
  22.8080113  29.3942753   6.9681673  21.0520113  23.1822753  10.5881673
  21.8950113  23.4022753  10.5451673  20.6630113  23.7552753  10.0571673
  21.1190113  23.2992753  10.5031673  25.1030113  29.5142753   5.2901673
  25.8160113  30.0092753   5.3801673  25.3250113  28.9472753   4.6641673
  25.2410113  29.5032753   5.2111673  19.2590113  31.1572753   8.6101673
  18.5920113  31.6452753   8.8861673  19.9390113  31.7022753   8.6391673
  19.2610113  31.3092753   8.6551673  26.9060113  24.8672753  18.7061673
  26.4220113  25.4442753  19.1481673  26.8780113  25.1622753  17.8851673
  26.8300113  24.9962753  18.6501673  19.3250113  27.8412753   3.7131673
  19.1400113  27.0022753   3.8651673  19.9840113  27.8052753   3.1431673
  19.3950113  27.7122753   3.6511673  29.6260113  33.2172753   7.6171673
  29.1030113  33.8512753   7.3241673  29.9360113  32.8532753   6.8881673
  29.5940113  33.2572753   7.4661673  19.4970113  32.0052753   3.2881673
  20.0490113  32.5742753   3.6521673  19.2650113  31.4902753   3.9531673
  19.5440113  32.0132753   3.4401673  23.7010113  31.0052753  10.3771673
  24.1680113  31.2942753  11.0551673  24.2730113  30.5272753   9.9231673
  23.8550113  30.9772753  10.4101673  32.1370113  23.0192753   8.1141673
  32.4810113  23.1712753   8.9011673  31.6840113  22.2812753   8.2271673
  32.1210113  22.9322753   8.2471673  20.2670113  28.6752753   8.9211673
  20.6980113  28.5462753   8.1741673  20.0620113  29.5232753   8.8951673
  20.3000113  28.7812753   8.8071673  26.6130113  22.2392753   2.5711673
  26.6110113  22.1222753   1.7061673  26.4320113  23.0872753   2.6631673
  26.5860113  22.3472753   2.4571673  35.6670113  34.6662753  14.0681673
  34.9960113  35.1802753  14.2861673  35.7300113  34.7662753  13.2041673
  35.5770113  34.7572753  13.9731673  24.3510113  32.1912753   7.2031673
  24.4770113  33.0342753   7.3901673  25.0190113  31.7922753   7.5991673
  24.4690113  32.2572753   7.2891673  22.4810113  25.6742753  17.0651673
  21.9450113  25.1682753  17.5331673  22.5010113  25.2842753  16.2851673
  22.4040113  25.5412753  17.0191673  22.9660113  25.0712753   2.2051673
  22.8380113  24.6232753   2.9431673  22.3840113  24.7292753   1.6531673
  22.8610113  24.9542753   2.2331673  23.1330113  26.9012753   8.8041673
  22.3520113  26.8422753   8.4211673  23.2050113  26.1492753   9.2411673
  23.0280113  26.7822753   8.8121673  23.5630113  26.6382753  12.2721673
  23.5880113  25.9632753  11.7211673  22.9170113  27.1342753  11.9601673
  23.4720113  26.6112753  12.1451673  33.4580113  24.3512753  10.6681673
  32.7960113  24.6792753  11.1311673  33.6450113  24.9852753  10.0991673
  33.3880113  24.4932753  10.6521673  30.1030113  20.2572753  14.0971673
  30.2520113  19.4322753  13.8541673  30.4820113  20.3122753  14.8811673
  30.1810113  20.1432753  14.1771673  31.6510113  22.3202753   4.1791673
  32.1410113  23.0372753   4.1021673  30.8610113  22.5812753   3.9161673
  31.6070113  22.4642753   4.1291673  21.3620113  27.9932753  17.8311673
  21.3250113  28.4942753  17.1171673  21.6930113  27.2412753  17.5361673
  21.4050113  27.9552753  17.6821673  32.9650113  30.1982753  16.0891673
  33.4490113  30.9162753  16.1871673  33.3590113  29.7712753  15.4381673
  33.0950113  30.2412753  16.0071673  27.2610113  33.0432753  17.2661673
  27.6150113  32.8652753  18.0431673  26.8250113  32.3142753  17.0671673
  27.2490113  32.9092753  17.3521673  28.2330113  23.7902753   9.9041673
  28.7130113  24.4892753  10.1121673  28.6060113  23.1432753  10.3551673
  28.3590113  23.7982753  10.0011673  30.4220113  26.9592753   2.1781673
  30.4140113  27.6812753   1.6881673  29.7830113  27.0942753   2.7551673
  30.3270113  27.0862753   2.1911673  35.3940113  30.8292753   6.1591673
  35.7500113  30.4792753   6.8741673  35.3860113  30.1682753   5.5891673
  35.4460113  30.6792753   6.1801673  31.4390113  33.8952753  10.0031673
  30.8360113  33.5992753   9.4461673  31.9840113  34.3472753   9.4941673
  31.4300113  33.9182753   9.8451673  31.4520113  30.7462753   9.4031673
  30.6550113  30.9702753   9.6771673  31.7100113  30.1522753   9.9881673
  31.3720113  30.6912753   9.5301673  25.3440113  35.5582753   3.8511673
  25.1970113  34.7822753   4.2221673  26.0330113  35.4112753   3.3361673
  25.4240113  35.4212753   3.8301673  25.0150113  19.3012753   1.8391673
  25.1120113  19.1942753   2.7001673  24.3070113  19.8072753   1.7741673
  24.9250113  19.3602753   1.9571673  34.7120113  28.7442753  14.2491673
  34.7670113  28.8692753  13.3871673  35.4650113  29.0642753  14.5511673
  34.8310113  28.8092753  14.1661673  30.9030113  34.0932753  18.5261673
  31.0670113  34.3762753  19.3351673  31.1660113  34.7542753  18.0211673
  30.9660113  34.2332753  18.5711673  35.7440113  19.0422753  17.2361673
  35.1070113  18.6422753  16.7941673  35.7700113  18.6112753  17.9941673
  35.6540113  18.9202753  17.2821673  22.1370113  27.6082753   3.0821673
  22.4610113  26.8292753   2.8601673  22.7830113  27.9762753   3.5371673
  22.2800113  27.5472753   3.1161673  30.4430113  28.5502753  13.8491673
  30.2880113  29.1602753  14.4531673  30.9770113  27.9922753  14.2551673
  30.4990113  28.5582753  13.9981673  19.1340113  19.2692753   4.0501673
  19.2630113  18.5612753   3.5581673  18.7670113  18.9512753   4.7751673
  19.0990113  19.1172753   4.0851673  28.8270113  26.9502753   4.5071673
  28.8860113  27.6002753   5.0861673  28.6380113  26.2542753   4.9981673
  28.8080113  26.9432753   4.6651673  34.0530113  31.2792753  10.3761673
  33.5740113  31.5772753   9.7101673  33.6970113  30.5032753  10.5541673
  33.9300113  31.2082753  10.3041673  28.0500113  28.9972753   8.9381673
  27.2030113  28.8032753   9.0191673  28.3740113  28.8322753   9.7311673
  27.9720113  28.9442753   9.0671673  21.8980113  28.6902753  11.2541673
  22.6200113  29.1782753  11.2171673  21.6280113  28.6602753  10.4251673
  21.9650113  28.7582753  11.1261673  25.1280113  23.8612753   7.9891673
  25.9740113  23.6712753   8.0871673  24.7580113  23.0842753   7.8511673
  25.1980113  23.7182753   7.9831673  19.9490113  25.1992753   4.6441673
  20.4380113  24.9072753   5.3051673  20.0780113  24.6062753   4.0171673
  20.0400113  25.0682753   4.6491673  34.9840113  28.2212753  11.4951673
  34.9770113  27.4452753  11.8931673  34.1430113  28.4552753  11.4881673
  34.8590113  28.1412753  11.5531673  21.2930113  29.7422753  15.5321673
  20.8720113  29.2242753  14.9711673  20.9410113  30.5282753  15.3891673
  21.1790113  29.7822753  15.4281673  25.9290113  25.0942753   2.8401673
  26.2010113  25.9202753   2.9071673  25.0660113  25.1692753   2.7441673
  25.8420113  25.2272753   2.8351673  33.9020113  22.2162753  17.4721673
  33.3770113  22.6752753  17.9961673  33.5410113  21.4212753  17.4661673
  33.7710113  22.1662753  17.5481673  19.4090113  21.0642753   9.3761673
  19.4530113  21.4082753   8.5751673  20.1640113  21.3012753   9.7431673
  19.5270113  21.1502753   9.3121673  32.3940113  25.7852753  17.5481673
  32.4670113  25.8892753  18.4111673  31.7600113  26.3432753  17.3271673
  32.3110113  25.8832753  17.6431673  34.6620113  26.1042753  15.9131673
  34.9810113  26.8902753  16.1161673  34.2920113  25.8342753  16.6561673
  34.6550113  26.1802753  16.0531673  34.4580113  24.3622753   7.1021673
  33.7130113  24.0392753   7.4201673  34.4600113  25.1882753   7.3821673
  34.3480113  24.4362753   7.1901673  26.0320113  31.5532753  12.1501673
  25.7340113  32.1452753  12.7171673  26.0870113  31.9952753  11.4011673
  25.9960113  31.7062753  12.1231673  24.0110113  30.5032753  15.5481673
  23.2050113  30.2132753  15.7151673  23.9220113  31.3712753  15.5541673
  23.8790113  30.5882753  15.5731673  33.3700113  20.6922753  14.5631673
  34.1140113  21.1442753  14.5001673  32.8040113  21.1622753  14.0941673
  33.3970113  20.8292753  14.4851673  28.5480113  27.9762753  11.6411673
  29.0240113  28.3502753  12.2691673  27.7250113  28.1102753  11.9001673
  28.4970113  28.0512753  11.7721673  25.2580113  23.5792753  14.3821673
  25.4190113  22.8352753  14.8091673  25.2130113  23.3302753  13.5471673
  25.2750113  23.4322753  14.3221673  34.6550113  18.6722753  12.2331673
  34.3750113  19.4972753  12.1891673  35.3710113  18.7252753  12.7291673
  34.7200113  18.8022753  12.3001673  27.0100113  19.3872753  14.2621673
  27.7150113  19.7072753  13.8601673  27.2510113  18.5802753  14.4891673
  27.1490113  19.3152753  14.2361673  25.9950113  33.5972753  10.2581673
  25.3710113  34.1792753  10.0761673  26.2430113  33.3112753   9.4721673
  25.9390113  33.6412753  10.1151673  30.3040113  30.2312753  17.2471673
  31.0610113  30.5172753  16.9211673  29.7570113  30.2832753  16.5691673
  30.3350113  30.2812753  17.0981673  34.2130113  32.7812753  15.7511673
  34.5590113  33.0512753  16.5051673  34.5070113  33.3632753  15.1711673
  34.3080113  32.9072753  15.7771673  23.5190113  24.4402753  10.3231673
  23.9590113  24.3372753   9.5771673  24.0640113  24.1272753  10.9281673
  23.6640113  24.3792753  10.3021673  31.5350113  23.5422753  15.9151673
  30.8870113  24.0122753  16.2631673  32.1000113  23.4532753  16.5741673
  31.5230113  23.5982753  16.0641673  31.2230113  25.0792753  12.2131673
  31.5250113  25.4992753  12.9161673  31.2590113  24.2392753  12.4451673
  31.2730113  25.0172753  12.3511673  28.6480113  35.2462753  16.1381673
  29.1260113  34.6462753  15.7221673  28.2970113  34.8032753  16.8031673
  28.6670113  35.0922753  16.1751673  33.7710113  24.5262753   4.4651673
  33.9780113  24.3252753   5.2891673  34.5270113  24.7942753   4.1231673
  33.9130113  24.5362753   4.5361673  27.0660113  19.4252753  10.3701673
  26.2400113  19.2762753  10.6071673  27.0260113  19.4602753   9.4991673
  26.9380113  19.4082753  10.2761673  34.7930113  20.6092753   5.9391673
  34.0790113  20.1382753   6.1101673  34.6310113  20.9502753   5.1531673
  34.6640113  20.5902753   5.8481673  35.2360113  28.5532753   4.3191673
  35.7120113  27.8242753   4.2711673  34.4150113  28.2672753   4.2431673
  35.1850113  28.4032753   4.3001673  28.7070113  30.4652753  15.1581673
  27.9120113  30.4012753  15.5091673  28.7780113  31.3122753  14.9631673
  28.6000113  30.5802753  15.1811673  22.6950113  22.5672753   3.6301673
  22.8210113  22.2382753   2.8321673  21.8830113  22.3182753   3.8291673
  22.5940113  22.4822753   3.5421673  31.4520113  29.7202753   6.6741673
  31.5280113  30.0612753   7.4731673  31.6210113  28.8732753   6.7951673
  31.4880113  29.6452753   6.8101673  28.9740113  28.9942753   6.2391673
  28.6760113  28.6792753   6.9961673  29.6690113  29.4672753   6.4741673
  29.0330113  29.0172753   6.3861673  29.1960113  33.1122753  14.2661673
  29.8830113  32.9982753  14.7911673  29.3300113  33.9032753  13.9221673
  29.3170113  33.2122753  14.2931673  31.8850113  26.3862753  14.6531673
  31.6300113  25.6672753  15.0751673  32.7060113  26.5022753  14.9231673
  31.9690113  26.2972753  14.7551673  29.8190113  27.5762753  17.8401673
  30.1420113  28.2622753  17.4081673  29.1150113  27.8992753  18.2421673
  29.7620113  27.7252753  17.8351673  29.6040113  31.0402753  11.6991673
  28.9100113  31.4422753  12.0421673  30.2810113  31.4732753  12.0381673
  29.6010113  31.1632753  11.8001673  34.9810113  33.6332753  18.2791673
  35.7570113  33.2432753  18.3621673  34.5120113  33.2972753  18.9341673
  35.0260113  33.5262753  18.3881673  22.6720113  24.5782753  14.0461673
  23.0470113  25.1972753  13.5591673  23.3460113  24.1042753  14.3311673
  22.8270113  24.6002753  14.0161673  20.4470113  23.0262753  13.3211673
  20.5240113  22.8572753  12.4681673  21.1930113  23.4322753  13.5181673
  20.5680113  23.0612753  13.2241673  29.9260113  32.6312753   4.8681673
  29.7210113  33.4642753   4.7091673  29.1510113  32.2492753   4.9901673
  29.7810113  32.6982753   4.8631673  35.1080113  25.8122753  13.1171673
  35.1060113  24.9492753  13.2411673  35.1750113  26.1362753  13.9241673
  35.1180113  25.7322753  13.2541673  19.8440113  28.2522753  13.5451673
  20.1640113  28.4712753  12.7641673  19.7440113  27.3872753  13.4901673
  19.8760113  28.1572753  13.4221673  30.9870113  20.6122753  16.8991673
  31.0790113  21.3242753  17.3931673  30.3500113  20.1672753  17.2961673
  30.9060113  20.6512753  17.0311673  29.9810113  20.8022753   7.7531673
  29.2810113  21.3202753   7.6971673  30.0190113  20.4222753   6.9691673
  29.8830113  20.8232753   7.6291673  33.5790113  21.3182753  10.5531673
  34.4340113  21.4172753  10.6981673  33.2100113  21.8712753  11.1181673
  33.6510113  21.4152753  10.6581673  24.6070113  27.5442753  14.9301673
  24.2110113  28.3182753  15.0051673  24.2010113  27.1712753  14.2541673
  24.4890113  27.6032753  14.8411673  33.8830113  26.5982753   9.0441673
  34.5490113  27.1392753   9.2041673  33.5380113  26.9092753   8.3051673
  33.9300113  26.7242753   8.9591673  34.1960113  34.6642753   4.8511673
  34.0220113  34.0102753   5.4011673  34.9090113  34.3932753   4.4281673
  34.2760113  34.5272753   4.8701673  25.0360113  20.5212753  12.3801673
  24.1720113  20.6052753  12.4601673  25.2560113  20.0072753  13.0491673
  24.9410113  20.4582753  12.4911673  29.1390113  21.2692753  10.7541673
  28.4020113  20.8152753  10.8671673  29.7100113  20.8672753  11.2771673
  29.1140113  21.1422753  10.8481673  31.8710113  32.1172753  12.5421673
  32.0770113  32.4182753  13.3341673  31.8100113  32.8392753  12.0571673
  31.8920113  32.2682753  12.5871673  26.6420113  25.5982753  15.9581673
  26.3200113  25.0222753  15.3881673  26.2830113  26.3532753  15.7121673
  26.5420113  25.6242753  15.8381673  34.7880113  34.0162753  10.7971673
  35.3150113  33.9332753  10.1061673  34.3970113  33.2382753  10.8511673
  34.8080113  33.8892753  10.7031673  22.2560113  20.6042753  13.0281673
  21.9130113  19.8372753  12.7941673  21.5610113  21.1282753  13.0921673
  22.1030113  20.5682753  13.0031673  31.3020113  19.4602753  10.0051673
  31.9720113  20.0042753  10.1321673  30.7990113  19.8842753   9.4321673
  31.3270113  19.6032753   9.9391673  22.6700113  34.3372753  17.5661673
  23.2650113  34.7682753  18.0381673  22.3060113  34.9612753  17.0771673
  22.7040113  34.4932753  17.5631673  30.6610113  25.2682753   7.4981673
  31.2120113  24.6612753   7.7981673  30.2360113  25.5312753   8.2131673
  30.6800113  25.2172753   7.6471673  20.9090113  23.9182753   6.9841673
  20.5410113  24.2202753   7.7151673  21.4430113  23.2892753   7.2681673
  20.9330113  23.8702753   7.1341673  20.5970113  32.3262753  14.4951673
  20.0230113  32.7422753  15.0041673  21.3300113  32.7912753  14.5901673
  20.6210113  32.4562753  14.5841673  32.6310113  27.0992753   4.0601673
  32.6990113  26.2492753   4.2411673  31.8080113  27.1852753   3.7821673
  32.5190113  26.9862753   4.0461673  26.5500113  27.9902753   2.9981673
  26.6500113  28.1292753   2.1431673  27.3680113  27.9302753   3.2941673
  26.6850113  28.0012753   2.9151673  31.7850113  32.3192753   2.8001673
  31.5340113  32.1912753   3.6261673  31.4680113  31.6242753   2.3791673
  31.7010113  32.1982753   2.8601673  25.6890113  20.9652753  16.1141673
  25.9230113  20.3892753  15.5011673  24.8470113  20.7842753  16.2551673
  25.5990113  20.8532753  16.0441673  33.3160113  28.5832753  18.5661673
  34.1870113  28.5472753  18.5301673  33.0970113  29.0032753  17.8341673
  33.4130113  28.6392753  18.4531673  23.0700113  34.4082753   9.7471673
  22.9910113  33.5982753   9.4311673  22.6260113  34.8952753   9.1751673
  22.9930113  34.3602753   9.6161673  28.6710113  30.5272753   2.2301673
  29.3880113  30.1802753   1.8741673  28.6370113  31.3272753   1.8821673
  28.7720113  30.5942753   2.1261673  29.8890113   7.6061673  29.1524083
  29.3650113   8.2021673  29.5154083  30.2860113   7.2381673  29.8364083
  29.8700113   7.6401673  29.3074083  19.7580113  11.7461673  24.6084083
  19.3170113  11.8641673  25.3514083  19.4750113  10.9711673  24.3234083
  19.6510113  11.6491673  24.6764083  19.5010113   5.5381673  21.1154083
  18.7230113   5.7001673  20.7554083  19.5400113   4.6671673  21.1374083
  19.3920113   5.4331673  21.0654083  22.6400113  10.8011673  19.7874083
  22.2480113  10.4301673  19.1014083  22.5600113  10.2031673  20.4164083
  22.5700113  10.6581673  19.7784083  32.5600113   8.6731673  25.8284083
  32.6400113   8.6771673  24.9594083  31.9760113   8.0411673  25.9774083
  32.4850113   8.5801673  25.7224083  22.2670113  12.4421673  23.6874083
  22.8750113  12.2721673  24.2904083  21.5160113  12.3021673  24.1084083
  22.2460113  12.3961673  23.8384083  26.5490113   1.7771673  23.6364083
  26.4790113   2.4541673  23.0904083  27.2900113   1.3891673  23.3874083
  26.6480113   1.8201673  23.5184083  19.6980113  14.4811673  30.8634083
  19.8270113  14.2011673  31.6794083  19.0880113  13.9401673  30.5544083
  19.6270113  14.3601673  30.9384083  21.1440113   9.0021673  25.0654083
  20.6820113   8.6101673  24.4384083  21.8440113   8.4891673  25.1574083
  21.1790113   8.8691673  24.9864083  25.6520113   4.6121673  30.4124083
  26.3300113   4.6301673  29.8634083  25.6070113   3.7761673  30.6574083
  25.7450113   4.4911673  30.3674083  26.2540113  15.1981673  33.1934083
  26.3920113  15.9581673  32.7864083  27.0450113  14.8331673  33.2204083
  26.3910113  15.2571673  33.1374083  23.1450113   7.1021673  25.0884083
  23.9620113   6.9151673  25.3314083  22.6680113   6.4881673  25.4844083
  23.1950113   6.9841673  25.1834083  27.3490113  13.0831673  27.6984083
  27.6970113  12.2841673  27.7284083  28.0140113  13.5871673  27.4434083
  27.4990113  13.0391673  27.6654083  27.4060113  12.5321673  23.9094083
  27.7370113  11.8881673  24.3954083  27.6460113  12.3211673  23.0984083
  27.4900113  12.4061673  23.8614083  29.3740113   6.6631673  35.2484083
  28.5260113   6.5641673  35.0704083  29.4030113   7.4081673  35.7024083
  29.2530113   6.7591673  35.2894083  23.7420113   2.1961673  24.3544083
  23.4460113   2.6971673  23.7044083  24.6090113   2.2741673  24.2974083
  23.8260113   2.2821673  24.2504083  31.3940113   4.2641673  18.8764083
  30.9440113   4.9451673  19.1834083  31.5080113   3.7601673  19.5794083
  31.3450113   4.2901673  19.0254083  19.6000113   6.7631673  28.0784083
  19.3440113   7.5941673  28.0034083  18.9360113   6.3801673  28.4954083
  19.4640113   6.8291673  28.1294083  19.5100113  16.4731673  25.9784083
  18.9180113  17.0311673  25.6654083  19.9360113  16.2041673  25.2664083
  19.4860113  16.5151673  25.8274083  25.3500113  14.3171673  23.4584083
  24.7710113  14.0421673  24.0504083  25.9740113  13.7081673  23.4834083
  25.3570113  14.1871673  23.5494083  31.4930113  16.6051673  20.9804083
  32.2200113  17.0771673  21.0824083  31.7220113  15.8111673  21.2604083
  31.6350113  16.5581673  21.0374083  29.6610113  16.9971673  22.9704083
  29.8750113  17.5241673  23.6324083  30.4280113  16.8231673  22.5914083
  29.8060113  17.0491673  23.0124083  21.0550113  15.1431673  23.9094083
  21.7110113  14.5681673  23.9244083  21.4440113  15.8921673  23.6884083
  21.2100113  15.1681673  23.8794083  32.1000113  17.0071673  31.2754083
  32.8440113  17.4631673  31.2654083  31.9790113  16.7931673  30.4384083
  32.1920113  17.0431673  31.1504083  21.8730113  13.6301673  27.4094083
  22.2960113  13.2741673  26.7354083  22.1970113  13.2081673  28.1014083
  21.9830113  13.5151673  27.4124083  25.1040113  16.4821673  26.7054083
  25.9480113  16.5861673  26.5104083  24.8070113  17.3001673  26.7734083
  25.1850113  16.6181673  26.6864083  28.9110113   5.8791673  24.7924083
  29.1980113   5.6471673  24.0024083  29.6430113   5.9581673  25.2614083
  29.0610113   5.8561673  24.7454083  29.6330113   6.2181673  19.9134083
  29.9140113   7.0061673  20.1624083  28.8570113   6.3831673  19.5504083
  29.5600113   6.3591673  19.8964083  33.6740113  18.1921673  21.3804083
  34.3390113  18.0441673  20.8354083  34.0340113  18.1091673  22.1704083
  33.8260113  18.1581673  21.4164083  24.1020113  17.7011673  32.4454083
  24.3940113  17.6341673  33.2654083  23.4760113  17.0961673  32.4004083
  24.0530113  17.6021673  32.5604083  19.0160113   3.8581673  34.4374083
  19.0120113   4.4451673  35.0834083  19.6100113   4.1701673  33.8804083
  19.1030113   3.9911673  34.4504083  31.3540113  14.1921673  34.9794083
  31.3200113  14.5741673  35.7634083  32.2080113  14.1501673  34.8084083
  31.4750113  14.2421673  35.0704083  28.4920113  14.3891673  19.7294083
  28.3110113  14.9341673  20.3864083  29.2580113  14.6791673  19.4284083
  28.5780113  14.5131673  19.7824083  31.9990113   2.2851673  20.7834083
  32.5390113   1.6031673  20.8594083  32.0610113   2.6831673  21.5574083
  32.0880113   2.2431673  20.9094083  19.9530113   3.4531673  23.3524083
  19.8390113   2.5891673  23.3834083  19.4780113   3.7471673  24.0224083
  19.8660113   3.3691673  23.4554083  22.0950113  15.8631673  31.5674083
  21.3970113  15.3551673  31.6934083  22.3550113  15.6581673  30.7594083
  22.0300113  15.7581673  31.4664083  29.2570113   4.6611673  22.0974083
  28.7490113   3.9991673  21.8434083  29.3090113   5.1651673  21.3874083
  29.1900113   4.6381673  21.9554083  29.8060113  17.3561673  32.4774083
  30.5740113  17.2761673  32.0714083  29.2230113  17.2351673  31.8394083
  29.8330113  17.3261673  32.3234083  27.8550113   3.9691673  26.5104083
  27.9290113   4.5371673  25.8524083  27.9760113   4.4611673  27.2204083
  27.8830113   4.1261673  26.5184083  33.0800113  13.8041673  24.9224083
  33.7810113  13.3221673  25.1114083  32.4200113  13.2351673  24.9674083
  33.0860113  13.6491673  24.9564083  23.4560113  14.7141673  34.1344083
  24.2970113  14.7771673  33.9124083  23.4190113  15.1111673  34.9104083
  23.5750113  14.7821673  34.2164083  25.4190113  10.2251673  28.8834083
  25.5910113  10.0151673  29.7124083  24.7640113   9.6911673  28.6674083
  25.3480113  10.1151673  28.9744083  31.6470113   4.1391673  32.3984083
  31.5520113   4.4581673  33.2044083  31.0540113   3.5001673  32.3604083
  31.5450113   4.0911673  32.5124083  26.1690113  10.1631673  31.4734083
  26.2220113  11.0101673  31.6754083  25.8840113   9.7931673  32.2104083
  26.1350113  10.2331673  31.6114083  32.3460113  10.8581673  30.6034083
  31.8320113  10.4461673  31.1744083  32.2200113  11.7021673  30.7844083
  32.2520113  10.9221673  30.7144083  22.9110113   3.6021673  26.5124083
  23.1830113   3.1721673  25.8044083  22.7350113   2.9661673  27.0834083
  22.9250113   3.4451673  26.4924083  22.7350113  11.0291673  26.0614083
  23.5860113  10.9491673  25.8884083  22.3780113  10.3471673  25.6494083
  22.8080113  10.9161673  25.9744083  21.5020113  17.7541673  27.2984083
  20.8290113  17.2561673  27.0534083  21.9050113  17.9391673  26.5474083
  21.4620113  17.7081673  27.1514083  21.0520113   4.7041673  29.5944083
  21.8950113   4.9241673  29.5514083  20.6630113   5.2771673  29.0634083
  21.1190113   4.8211673  29.5094083  33.4940113   7.8341673  20.3154083
  33.2740113   8.5651673  19.8934083  33.0460113   7.8851673  21.0624083
  33.3950113   7.9491673  20.3634083  25.1030113  11.0361673  24.2964083
  25.8160113  11.5311673  24.3864083  25.3250113  10.4691673  23.6704083
  25.2410113  11.0251673  24.2174083  19.2590113  12.6791673  27.6164083
  18.5920113  13.1671673  27.8924083  19.9390113  13.2241673  27.6454083
  19.2610113  12.8311673  27.6614083  19.3250113   9.3631673  22.7194083
  19.1400113   8.5241673  22.8714083  19.9840113   9.3271673  22.1494083
  19.3950113   9.2341673  22.6574083  29.6260113  14.7391673  26.6234083
  29.1030113  15.3731673  26.3304083  29.9360113  14.3751673  25.8944083
  29.5940113  14.7791673  26.4724083  19.4970113  13.5271673  22.2944083
  20.0490113  14.0961673  22.6584083  19.2650113  13.0121673  22.9594083
  19.5440113  13.5351673  22.4464083  23.7010113  12.5271673  29.3834083
  24.1680113  12.8161673  30.0614083  24.2730113  12.0491673  28.9294083
  23.8550113  12.4991673  29.4164083  32.1370113   4.5411673  27.1204083
  32.4810113   4.6931673  27.9074083  31.6840113   3.8031673  27.2334083
  32.1210113   4.4541673  27.2534083  19.3270113  11.9761673  19.9224083
  20.0830113  11.5441673  19.9804083  19.3420113  12.5081673  20.6134083
  19.4410113  11.9911673  20.0334083  20.2670113  10.1971673  27.9274083
  20.6980113  10.0681673  27.1804083  20.0620113  11.0451673  27.9014083
  20.3000113  10.3031673  27.8134083  26.6130113   3.7611673  21.5774083
  26.6110113   3.6441673  20.7124083  26.4320113   4.6091673  21.6694083
  26.5860113   3.8691673  21.4634083  35.6670113  16.1881673  33.0744083
  34.9960113  16.7021673  33.2924083  35.7300113  16.2881673  32.2104083
  35.5770113  16.2791673  32.9794083  24.3510113  13.7131673  26.2094083
  24.4770113  14.5561673  26.3964083  25.0190113  13.3141673  26.6054083
  24.4690113  13.7791673  26.2954083  22.9660113   6.5931673  21.2114083
  22.8380113   6.1451673  21.9494083  22.3840113   6.2511673  20.6594083
  22.8610113   6.4761673  21.2394083  23.1330113   8.4231673  27.8104083
  22.3520113   8.3641673  27.4274083  23.2050113   7.6711673  28.2474083
  23.0280113   8.3041673  27.8184083  23.5630113   8.1601673  31.2784083
  23.5880113   7.4851673  30.7274083  22.9170113   8.6561673  30.9664083
  23.4720113   8.1331673  31.1514083  33.4580113   5.8731673  29.6744083
  32.7960113   6.2011673  30.1374083  33.6450113   6.5071673  29.1054083
  33.3880113   6.0151673  29.6584083  27.6630113  16.9371673  30.6704083
  27.3860113  16.2961673  30.1474083  27.4550113  17.6631673  30.2324083
  27.5920113  16.9501673  30.5284083  31.6510113   3.8421673  23.1854083
  32.1410113   4.5591673  23.1084083  30.8610113   4.1031673  22.9224083
  31.6070113   3.9861673  23.1354083  32.9650113  11.7201673  35.0954083
  33.4490113  12.4381673  35.1934083  33.3590113  11.2931673  34.4444083
  33.0950113  11.7631673  35.0134083  28.2330113   5.3121673  28.9104083
  28.7130113   6.0111673  29.1184083  28.6060113   4.6651673  29.3614083
  28.3590113   5.3201673  29.0074083  30.4220113   8.4811673  21.1844083
  30.4140113   9.2031673  20.6944083  29.7830113   8.6161673  21.7614083
  30.3270113   8.6081673  21.1974083  35.3940113  12.3511673  25.1654083
  35.7500113  12.0011673  25.8804083  35.3860113  11.6901673  24.5954083
  35.4460113  12.2011673  25.1864083  31.4390113  15.4171673  29.0094083
  30.8360113  15.1211673  28.4524083  31.9840113  15.8691673  28.5004083
  31.4300113  15.4401673  28.8514083  31.4520113  12.2681673  28.4094083
  30.6550113  12.4921673  28.6834083  31.7100113  11.6741673  28.9944083
  31.3720113  12.2131673  28.5364083  25.3440113  17.0801673  22.8574083
  25.1970113  16.3041673  23.2284083  26.0330113  16.9331673  22.3424083
  25.4240113  16.9431673  22.8364083  27.6360113  16.5961673  21.2594083
  28.2580113  16.7591673  21.8494083  27.6720113  17.2871673  20.7274083
  27.7330113  16.7221673  21.2684083  34.7120113  10.2661673  33.2554083
  34.7670113  10.3911673  32.3934083  35.4650113  10.5861673  33.5574083
  34.8310113  10.3311673  33.1724083  22.1370113   9.1301673  22.0884083
  22.4610113   8.3511673  21.8664083  22.7830113   9.4981673  22.5434083
  22.2800113   9.0691673  22.1224083  30.4430113  10.0721673  32.8554083
  30.2880113  10.6821673  33.4594083  30.9770113   9.5141673  33.2614083
  30.4990113  10.0801673  33.0044083  28.8270113   8.4721673  23.5134083
  28.8860113   9.1221673  24.0924083  28.6380113   7.7761673  24.0044083
  28.8080113   8.4651673  23.6714083  34.0530113  12.8011673  29.3824083
  33.5740113  13.0991673  28.7164083  33.6970113  12.0251673  29.5604083
  33.9300113  12.7301673  29.3104083  23.3230113   2.9891673  20.0254083
  22.8120113   3.0421673  19.3194083  24.1070113   3.2291673  19.7294083
  23.3630113   3.0321673  19.8774083  28.0500113  10.5191673  27.9444083
  27.2030113  10.3251673  28.0254083  28.3740113  10.3541673  28.7374083
  27.9720113  10.4661673  28.0734083  21.8980113  10.2121673  30.2604083
  22.6200113  10.7001673  30.2234083  21.6280113  10.1821673  29.4314083
  21.9650113  10.2801673  30.1324083  25.1280113   5.3831673  26.9954083
  25.9740113   5.1931673  27.0934083  24.7580113   4.6061673  26.8574083
  25.1980113   5.2401673  26.9894083  19.9490113   6.7211673  23.6504083
  20.4380113   6.4291673  24.3114083  20.0780113   6.1281673  23.0234083
  20.0400113   6.5901673  23.6554083  34.9840113   9.7431673  30.5014083
  34.9770113   8.9671673  30.8994083  34.1430113   9.9771673  30.4944083
  34.8590113   9.6631673  30.5594083  24.4740113   8.1551673  19.1364083
  23.8640113   7.7501673  19.6104083  24.0880113   8.2731673  18.3634083
  24.3270113   8.1121673  19.0924083  21.2930113  11.2641673  34.5384083
  20.8720113  10.7461673  33.9774083  20.9410113  12.0501673  34.3954083
  21.1790113  11.3041673  34.4344083  25.9290113   6.6161673  21.8464083
  26.2010113   7.4421673  21.9134083  25.0660113   6.6911673  21.7504083
  25.8420113   6.7491673  21.8414083  19.4090113   2.5861673  28.3824083
  19.4530113   2.9301673  27.5814083  20.1640113   2.8231673  28.7494083
  19.5270113   2.6721673  28.3184083  34.6620113   7.6261673  34.9194083
  34.9810113   8.4121673  35.1224083  34.2920113   7.3561673  35.6624083
  34.6550113   7.7021673  35.0594083  33.9760113  14.0501673  20.4494083
  34.3100113  13.2441673  20.4844083  33.2210113  13.9781673  20.8794083
  33.9140113  13.9201673  20.5184083  34.4580113   5.8841673  26.1084083
  33.7130113   5.5611673  26.4264083  34.4600113   6.7101673  26.3884083
  34.3480113   5.9581673  26.1964083  31.3500113  11.9251673  19.8524083
  32.0340113  11.4111673  19.6834083  30.9330113  11.9711673  19.0874083
  31.3890113  11.8561673  19.7144083  26.0320113  13.0751673  31.1564083
  25.7340113  13.6671673  31.7234083  26.0870113  13.5171673  30.4074083
  25.9960113  13.2281673  31.1294083  24.0110113  12.0251673  34.5544083
  23.2050113  11.7351673  34.7214083  23.9220113  12.8931673  34.5604083
  23.8790113  12.1101673  34.5794083  33.3700113   2.2141673  33.5694083
  34.1140113   2.6661673  33.5064083  32.8040113   2.6841673  33.1004083
  33.3970113   2.3511673  33.4914083  28.5480113   9.4981673  30.6474083
  29.0240113   9.8721673  31.2754083  27.7250113   9.6321673  30.9064083
  28.4970113   9.5731673  30.7784083  25.2580113   5.1011673  33.3884083
  25.4190113   4.3571673  33.8154083  25.2130113   4.8521673  32.5534083
  25.2750113   4.9541673  33.3284083  27.8120113  16.8911673  25.8754083
  28.3580113  17.5701673  25.9294083  27.4620113  16.9731673  25.0804083
  27.8410113  17.0041673  25.7654083  25.9950113  15.1191673  29.2644083
  25.3710113  15.7011673  29.0824083  26.2430113  14.8331673  28.4784083
  25.9390113  15.1631673  29.1214083  34.2130113  14.3031673  34.7574083
  34.5590113  14.5731673  35.5114083  34.5070113  14.8851673  34.1774083
  34.3080113  14.4291673  34.7834083  27.5890113   9.8951673  19.1794083
  26.7840113   9.7181673  18.8944083  27.5560113  10.7461673  19.3714083
  27.4650113   9.9941673  19.1664083  23.5190113   5.9621673  29.3294083
  23.9590113   5.8591673  28.5834083  24.0640113   5.6491673  29.9344083
  23.6640113   5.9011673  29.3084083  31.5350113   5.0641673  34.9214083
  30.8870113   5.5341673  35.2694083  32.1000113   4.9751673  35.5804083
  31.5230113   5.1201673  35.0704083  31.2230113   6.6011673  31.2194083
  31.5250113   7.0211673  31.9224083  31.2590113   5.7611673  31.4514083
  31.2730113   6.5391673  31.3574083  28.6480113  16.7681673  35.1444083
  29.1260113  16.1681673  34.7284083  28.2970113  16.3251673  35.8094083
  28.6670113  16.6141673  35.1814083  33.7710113   6.0481673  23.4714083
  33.9780113   5.8471673  24.2954083  34.5270113   6.3161673  23.1294083
  33.9130113   6.0581673  23.5424083  34.7930113   2.1311673  24.9454083
  34.0790113   1.6601673  25.1164083  34.6310113   2.4721673  24.1594083
  34.6640113   2.1121673  24.8544083  35.2360113  10.0751673  23.3254083
  35.7120113   9.3461673  23.2774083  34.4150113   9.7891673  23.2494083
  35.1850113   9.9251673  23.3064083  28.7070113  11.9871673  34.1644083
  27.9120113  11.9231673  34.5154083  28.7780113  12.8341673  33.9694083
  28.6000113  12.1021673  34.1874083  24.5370113  18.1941673  29.4814083
  24.5480113  18.2531673  30.3514083  24.1120113  17.4471673  29.3314083
  24.4760113  18.0921673  29.5874083  22.6950113   4.0891673  22.6364083
  22.8210113   3.7601673  21.8384083  21.8830113   3.8401673  22.8354083
  22.5940113   4.0041673  22.5484083  31.4520113  11.2421673  25.6804083
  31.5280113  11.5831673  26.4794083  31.6210113  10.3951673  25.8014083
  31.4880113  11.1671673  25.8164083  28.9740113  10.5161673  25.2454083
  28.6760113  10.2011673  26.0024083  29.6690113  10.9891673  25.4804083
  29.0330113  10.5391673  25.3924083  29.1960113  14.6341673  33.2724083
  29.8830113  14.5201673  33.7974083  29.3300113  15.4251673  32.9284083
  29.3170113  14.7341673  33.2994083  31.8850113   7.9081673  33.6594083
  31.6300113   7.1891673  34.0814083  32.7060113   8.0241673  33.9294083
  31.9690113   7.8191673  33.7614083  21.3010113  17.6921673  34.9234083
  20.6470113  17.1231673  35.0214083  20.9260113  18.4651673  35.0744083
  21.1490113  17.7221673  34.9604083  32.9030113  17.4721673  27.7754083
  32.4520113  18.1151673  28.1544083  33.6110113  17.3931673  28.2804083
  32.9410113  17.5551673  27.9064083  29.6040113  12.5621673  30.7054083
  28.9100113  12.9641673  31.0484083  30.2810113  12.9951673  31.0444083
  29.6010113  12.6851673  30.8064083  22.6720113   6.1001673  33.0524083
  23.0470113   6.7191673  32.5654083  23.3460113   5.6261673  33.3374083
  22.8270113   6.1221673  33.0224083  20.4470113   4.5481673  32.3274083
  20.5240113   4.3791673  31.4744083  21.1930113   4.9541673  32.5244083
  20.5680113   4.5831673  32.2304083  29.9260113  14.1531673  23.8744083
  29.7210113  14.9861673  23.7154083  29.1510113  13.7711673  23.9964083
  29.7810113  14.2201673  23.8694083  35.1080113   7.3341673  32.1234083
  35.1060113   6.4711673  32.2474083  35.1750113   7.6581673  32.9304083
  35.1180113   7.2541673  32.2604083  19.8440113   9.7741673  32.5514083
  20.1640113   9.9931673  31.7704083  19.7440113   8.9091673  32.4964083
  19.8760113   9.6791673  32.4284083  21.3000113   5.7101673  19.1694083
  20.6280113   5.7241673  19.7254083  21.3950113   4.8621673  18.9854083
  21.2150113   5.5871673  19.2244083  29.9810113   2.3241673  26.7594083
  29.2810113   2.8421673  26.7034083  30.0190113   1.9441673  25.9754083
  29.8830113   2.3451673  26.6354083  25.2880113  14.4151673  20.2834083
  25.7290113  14.4951673  21.0314083  24.4830113  14.1991673  20.5414083
  25.2340113  14.3951673  20.4324083  33.5790113   2.8401673  29.5594083
  34.4340113   2.9391673  29.7044083  33.2100113   3.3931673  30.1244083
  33.6510113   2.9371673  29.6644083  24.6070113   9.0661673  33.9364083
  24.2110113   9.8401673  34.0114083  24.2010113   8.6931673  33.2604083
  24.4890113   9.1251673  33.8474083  33.8830113   8.1201673  28.0504083
  34.5490113   8.6611673  28.2104083  33.5380113   8.4311673  27.3114083
  33.9300113   8.2461673  27.9654083  34.1960113  16.1861673  23.8574083
  34.0220113  15.5321673  24.4074083  34.9090113  15.9151673  23.4344083
  34.2760113  16.0491673  23.8764083  22.6170113  13.4851673  20.8844083
  22.3730113  13.1781673  21.6644083  22.5840113  12.7821673  20.3684083
  22.5760113  13.3361673  20.9234083  25.4360113  11.7301673  19.6274083
  24.6180113  11.4621673  19.7674083  25.4080113  12.5821673  19.8124083
  25.3110113  11.8171673  19.6754083  25.0360113   2.0431673  31.3864083
  24.1720113   2.1271673  31.4664083  25.2560113   1.5291673  32.0554083
  24.9410113   1.9801673  31.4974083  29.1390113   2.7911673  29.7604083
  28.4020113   2.3371673  29.8734083  29.7100113   2.3891673  30.2834083
  29.1140113   2.6641673  29.8544083  31.8710113  13.6391673  31.5484083
  32.0770113  13.9401673  32.3404083  31.8100113  14.3611673  31.0634083
  31.8920113  13.7901673  31.5934083  31.4050113  17.8531673  35.7944083
  30.6520113  17.8351673  35.3534083  31.5730113  18.7051673  35.8784083
  31.3190113  17.9761673  35.7414083  26.6420113   7.1201673  34.9644083
  26.3200113   6.5441673  34.3944083  26.2830113   7.8751673  34.7184083
  26.5420113   7.1461673  34.8444083  34.7880113  15.5381673  29.8034083
  35.3150113  15.4551673  29.1124083  34.3970113  14.7601673  29.8574083
  34.8080113  15.4111673  29.7094083  22.2560113   2.1261673  32.0344083
  21.9130113   1.3591673  31.8004083  21.5610113   2.6501673  32.0984083
  22.1030113   2.0901673  32.0094083  30.6610113   6.7901673  26.5044083
  31.2120113   6.1831673  26.8044083  30.2360113   7.0531673  27.2194083
  30.6800113   6.7391673  26.6534083  20.9090113   5.4401673  25.9904083
  20.5410113   5.7421673  26.7214083  21.4430113   4.8111673  26.2744083
  20.9330113   5.3921673  26.1404083  20.5970113  13.8481673  33.5014083
  20.0230113  14.2641673  34.0104083  21.3300113  14.3131673  33.5964083
  20.6210113  13.9781673  33.5904083  32.6310113   8.6211673  23.0664083
  32.6990113   7.7711673  23.2474083  31.8080113   8.7071673  22.7884083
  32.5190113   8.5081673  23.0524083  26.5500113   9.5121673  22.0044083
  26.6500113   9.6511673  21.1494083  27.3680113   9.4521673  22.3004083
  26.6850113   9.5231673  21.9214083  31.7850113  13.8411673  21.8064083
  31.5340113  13.7131673  22.6324083  31.4680113  13.1461673  21.3854083
  31.7010113  13.7201673  21.8664083  25.6890113   2.4871673  35.1204083
  25.9230113   1.9111673  34.5074083  24.8470113   2.3061673  35.2614083
  25.5990113   2.3751673  35.0504083  23.0700113  15.9301673  28.7534083
  22.9910113  15.1201673  28.4374083  22.6260113  16.4171673  28.1814083
  22.9930113  15.8821673  28.6224083  28.6710113  12.0491673  21.2364083
  29.3880113  11.7021673  20.8804083  28.6370113  12.8491673  20.8884083
  28.7720113  12.1161673  21.1324083  20.6420113  18.1741673  32.3344083
  21.1350113  18.1181673  33.0524083  20.8300113  17.4411673  31.8994083
  20.7430113  18.0571673  32.3764083  29.8890113   7.6061673  10.1461673
  29.3650113   8.2021673  10.5091673  30.2860113   7.2381673  10.8301673
  29.8700113   7.6401673  10.3011673  19.7580113  11.7461673   5.6021673
  19.3170113  11.8641673   6.3451673  19.4750113  10.9711673   5.3171673
  19.6510113  11.6491673   5.6701673  19.5010113   5.5381673   2.1091673
  18.7230113   5.7001673   1.7491673  19.5400113   4.6671673   2.1311673
  19.3920113   5.4331673   2.0591673  32.5600113   8.6731673   6.8221673
  32.6400113   8.6771673   5.9531673  31.9760113   8.0411673   6.9711673
  32.4850113   8.5801673   6.7161673  22.2670113  12.4421673   4.6811673
  22.8750113  12.2721673   5.2841673  21.5160113  12.3021673   5.1021673
  22.2460113  12.3961673   4.8321673  26.5490113   1.7771673   4.6301673
  26.4790113   2.4541673   4.0841673  27.2900113   1.3891673   4.3811673
  26.6480113   1.8201673   4.5121673  19.6980113  14.4811673  11.8571673
  19.8270113  14.2011673  12.6731673  19.0880113  13.9401673  11.5481673
  19.6270113  14.3601673  11.9321673  26.2720113  12.0061673  16.9241673
  26.0360113  12.0031673  17.7641673  25.5240113  11.8581673  16.5001673
  26.1260113  11.9831673  16.9851673  21.1440113   9.0021673   6.0591673
  20.6820113   8.6101673   5.4321673  21.8440113   8.4891673   6.1511673
  21.1790113   8.8691673   5.9801673  25.6520113   4.6121673  11.4061673
  26.3300113   4.6301673  10.8571673  25.6070113   3.7761673  11.6511673
  25.7450113   4.4911673  11.3611673  26.2540113  15.1981673  14.1871673
  26.3920113  15.9581673  13.7801673  27.0450113  14.8331673  14.2141673
  26.3910113  15.2571673  14.1311673  23.1450113   7.1021673   6.0821673
  23.9620113   6.9151673   6.3251673  22.6680113   6.4881673   6.4781673
  23.1950113   6.9841673   6.1771673  27.3490113  13.0831673   8.6921673
  27.6970113  12.2841673   8.7221673  28.0140113  13.5871673   8.4371673
  27.4990113  13.0391673   8.6591673  27.4060113  12.5321673   4.9031673
  27.7370113  11.8881673   5.3891673  27.6460113  12.3211673   4.0921673
  27.4900113  12.4061673   4.8551673  29.3740113   6.6631673  16.2421673
  28.5260113   6.5641673  16.0641673  29.4030113   7.4081673  16.6961673
  29.2530113   6.7591673  16.2831673  23.7420113   2.1961673   5.3481673
  23.4460113   2.6971673   4.6981673  24.6090113   2.2741673   5.2911673
  23.8260113   2.2821673   5.2441673  19.6000113   6.7631673   9.0721673
  19.3440113   7.5941673   8.9971673  18.9360113   6.3801673   9.4891673
  19.4640113   6.8291673   9.1231673  19.5100113  16.4731673   6.9721673
  18.9180113  17.0311673   6.6591673  19.9360113  16.2041673   6.2601673
  19.4860113  16.5151673   6.8211673  25.3500113  14.3171673   4.4521673
  24.7710113  14.0421673   5.0441673  25.9740113  13.7081673   4.4771673
  25.3570113  14.1871673   4.5431673  31.4930113  16.6051673   1.9741673
  32.2200113  17.0771673   2.0761673  31.7220113  15.8111673   2.2541673
  31.6350113  16.5581673   2.0311673  29.6610113  16.9971673   3.9641673
  29.8750113  17.5241673   4.6261673  30.4280113  16.8231673   3.5851673
  29.8060113  17.0491673   4.0061673  25.9350113   3.7131673  18.8611673
  26.0520113   3.2591673  18.1251673  26.2230113   4.5111673  18.6581673
  25.9950113   3.7641673  18.7221673  21.0550113  15.1431673   4.9031673
  21.7110113  14.5681673   4.9181673  21.4440113  15.8921673   4.6821673
  21.2100113  15.1681673   4.8731673  32.1000113  17.0071673  12.2691673
  32.8440113  17.4631673  12.2591673  31.9790113  16.7931673  11.4321673
  32.1920113  17.0431673  12.1441673  21.6680113   3.3101673  17.8451673
  20.8900113   2.9201673  17.7731673  22.1590113   2.8981673  17.2541673
  21.6250113   3.1911673  17.7471673  21.8730113  13.6301673   8.4031673
  22.2960113  13.2741673   7.7291673  22.1970113  13.2081673   9.0951673
  21.9830113  13.5151673   8.4061673  25.1040113  16.4821673   7.6991673
  25.9480113  16.5861673   7.5041673  24.8070113  17.3001673   7.7671673
  25.1850113  16.6181673   7.6801673  28.9110113   5.8791673   5.7861673
  29.1980113   5.6471673   4.9961673  29.6430113   5.9581673   6.2551673
  29.0610113   5.8561673   5.7391673  33.6740113  18.1921673   2.3741673
  34.3390113  18.0441673   1.8291673  34.0340113  18.1091673   3.1641673
  33.8260113  18.1581673   2.4101673  24.1020113  17.7011673  13.4391673
  24.3940113  17.6341673  14.2591673  23.4760113  17.0961673  13.3941673
  24.0530113  17.6021673  13.5541673  19.0160113   3.8581673  15.4311673
  19.0120113   4.4451673  16.0771673  19.6100113   4.1701673  14.8741673
  19.1030113   3.9911673  15.4441673  31.3540113  14.1921673  15.9731673
  31.3200113  14.5741673  16.7571673  32.2080113  14.1501673  15.8021673
  31.4750113  14.2421673  16.0641673  31.9990113   2.2851673   1.7771673
  32.5390113   1.6031673   1.8531673  32.0610113   2.6831673   2.5511673
  32.0880113   2.2431673   1.9031673  19.9530113   3.4531673   4.3461673
  19.8390113   2.5891673   4.3771673  19.4780113   3.7471673   5.0161673
  19.8660113   3.3691673   4.4491673  22.0950113  15.8631673  12.5611673
  21.3970113  15.3551673  12.6871673  22.3550113  15.6581673  11.7531673
  22.0300113  15.7581673  12.4601673  29.2570113   4.6611673   3.0911673
  28.7490113   3.9991673   2.8371673  29.3090113   5.1651673   2.3811673
  29.1900113   4.6381673   2.9491673  29.8060113  17.3561673  13.4711673
  30.5740113  17.2761673  13.0651673  29.2230113  17.2351673  12.8331673
  29.8330113  17.3261673  13.3171673  27.8550113   3.9691673   7.5041673
  27.9290113   4.5371673   6.8461673  27.9760113   4.4611673   8.2141673
  27.8830113   4.1261673   7.5121673  33.0800113  13.8041673   5.9161673
  33.7810113  13.3221673   6.1051673  32.4200113  13.2351673   5.9611673
  33.0860113  13.6491673   5.9501673  23.4560113  14.7141673  15.1281673
  24.2970113  14.7771673  14.9061673  23.4190113  15.1111673  15.9041673
  23.5750113  14.7821673  15.2101673  25.4190113  10.2251673   9.8771673
  25.5910113  10.0151673  10.7061673  24.7640113   9.6911673   9.6611673
  25.3480113  10.1151673   9.9681673  31.6470113   4.1391673  13.3921673
  31.5520113   4.4581673  14.1981673  31.0540113   3.5001673  13.3541673
  31.5450113   4.0911673  13.5061673  26.1690113  10.1631673  12.4671673
  26.2220113  11.0101673  12.6691673  25.8840113   9.7931673  13.2041673
  26.1350113  10.2331673  12.6051673  32.3460113  10.8581673  11.5971673
  31.8320113  10.4461673  12.1681673  32.2200113  11.7021673  11.7781673
  32.2520113  10.9221673  11.7081673  22.9110113   3.6021673   7.5061673
  23.1830113   3.1721673   6.7981673  22.7350113   2.9661673   8.0771673
  22.9250113   3.4451673   7.4861673  22.7350113  11.0291673   7.0551673
  23.5860113  10.9491673   6.8821673  22.3780113  10.3471673   6.6431673
  22.8080113  10.9161673   6.9681673  21.5020113  17.7541673   8.2921673
  20.8290113  17.2561673   8.0471673  21.9050113  17.9391673   7.5411673
  21.4620113  17.7081673   8.1451673  21.0520113   4.7041673  10.5881673
  21.8950113   4.9241673  10.5451673  20.6630113   5.2771673  10.0571673
  21.1190113   4.8211673  10.5031673  25.1030113  11.0361673   5.2901673
  25.8160113  11.5311673   5.3801673  25.3250113  10.4691673   4.6641673
  25.2410113  11.0251673   5.2111673  19.2590113  12.6791673   8.6101673
  18.5920113  13.1671673   8.8861673  19.9390113  13.2241673   8.6391673
  19.2610113  12.8311673   8.6551673  26.9060113   6.3891673  18.7061673
  26.4220113   6.9661673  19.1481673  26.8780113   6.6841673  17.8851673
  26.8300113   6.5181673  18.6501673  19.3250113   9.3631673   3.7131673
  19.1400113   8.5241673   3.8651673  19.9840113   9.3271673   3.1431673
  19.3950113   9.2341673   3.6511673  29.6260113  14.7391673   7.6171673
  29.1030113  15.3731673   7.3241673  29.9360113  14.3751673   6.8881673
  29.5940113  14.7791673   7.4661673  19.4970113  13.5271673   3.2881673
  20.0490113  14.0961673   3.6521673  19.2650113  13.0121673   3.9531673
  19.5440113  13.5351673   3.4401673  23.7010113  12.5271673  10.3771673
  24.1680113  12.8161673  11.0551673  24.2730113  12.0491673   9.9231673
  23.8550113  12.4991673  10.4101673  32.1370113   4.5411673   8.1141673
  32.4810113   4.6931673   8.9011673  31.6840113   3.8031673   8.2271673
  32.1210113   4.4541673   8.2471673  20.2670113  10.1971673   8.9211673
  20.6980113  10.0681673   8.1741673  20.0620113  11.0451673   8.8951673
  20.3000113  10.3031673   8.8071673  26.6130113   3.7611673   2.5711673
  26.6110113   3.6441673   1.7061673  26.4320113   4.6091673   2.6631673
  26.5860113   3.8691673   2.4571673  35.6670113  16.1881673  14.0681673
  34.9960113  16.7021673  14.2861673  35.7300113  16.2881673  13.2041673
  35.5770113  16.2791673  13.9731673  24.3510113  13.7131673   7.2031673
  24.4770113  14.5561673   7.3901673  25.0190113  13.3141673   7.5991673
  24.4690113  13.7791673   7.2891673  22.4810113   7.1961673  17.0651673
  21.9450113   6.6901673  17.5331673  22.5010113   6.8061673  16.2851673
  22.4040113   7.0631673  17.0191673  22.9660113   6.5931673   2.2051673
  22.8380113   6.1451673   2.9431673  22.3840113   6.2511673   1.6531673
  22.8610113   6.4761673   2.2331673  23.1330113   8.4231673   8.8041673
  22.3520113   8.3641673   8.4211673  23.2050113   7.6711673   9.2411673
  23.0280113   8.3041673   8.8121673  23.5630113   8.1601673  12.2721673
  23.5880113   7.4851673  11.7211673  22.9170113   8.6561673  11.9601673
  23.4720113   8.1331673  12.1451673  33.4580113   5.8731673  10.6681673
  32.7960113   6.2011673  11.1311673  33.6450113   6.5071673  10.0991673
  33.3880113   6.0151673  10.6521673  27.6630113  16.9371673  11.6641673
  27.3860113  16.2961673  11.1411673  27.4550113  17.6631673  11.2261673
  27.5920113  16.9501673  11.5221673  31.6510113   3.8421673   4.1791673
  32.1410113   4.5591673   4.1021673  30.8610113   4.1031673   3.9161673
  31.6070113   3.9861673   4.1291673  21.3620113   9.5151673  17.8311673
  21.3250113  10.0161673  17.1171673  21.6930113   8.7631673  17.5361673
  21.4050113   9.4771673  17.6821673  32.9650113  11.7201673  16.0891673
  33.4490113  12.4381673  16.1871673  33.3590113  11.2931673  15.4381673
  33.0950113  11.7631673  16.0071673  27.2610113  14.5651673  17.2661673
  27.6150113  14.3871673  18.0431673  26.8250113  13.8361673  17.0671673
  27.2490113  14.4311673  17.3521673  28.2330113   5.3121673   9.9041673
  28.7130113   6.0111673  10.1121673  28.6060113   4.6651673  10.3551673
  28.3590113   5.3201673  10.0011673  30.4220113   8.4811673   2.1781673
  30.4140113   9.2031673   1.6881673  29.7830113   8.6161673   2.7551673
  30.3270113   8.6081673   2.1911673  35.3940113  12.3511673   6.1591673
  35.7500113  12.0011673   6.8741673  35.3860113  11.6901673   5.5891673
  35.4460113  12.2011673   6.1801673  31.4390113  15.4171673  10.0031673
  30.8360113  15.1211673   9.4461673  31.9840113  15.8691673   9.4941673
  31.4300113  15.4401673   9.8451673  31.4520113  12.2681673   9.4031673
  30.6550113  12.4921673   9.6771673  31.7100113  11.6741673   9.9881673
  31.3720113  12.2131673   9.5301673  25.3440113  17.0801673   3.8511673
  25.1970113  16.3041673   4.2221673  26.0330113  16.9331673   3.3361673
  25.4240113  16.9431673   3.8301673  27.6360113  16.5961673   2.2531673
  28.2580113  16.7591673   2.8431673  27.6720113  17.2871673   1.7211673
  27.7330113  16.7221673   2.2621673  34.7120113  10.2661673  14.2491673
  34.7670113  10.3911673  13.3871673  35.4650113  10.5861673  14.5511673
  34.8310113  10.3311673  14.1661673  30.9030113  15.6151673  18.5261673
  31.0670113  15.8981673  19.3351673  31.1660113  16.2761673  18.0211673
  30.9660113  15.7551673  18.5711673  22.1370113   9.1301673   3.0821673
  22.4610113   8.3511673   2.8601673  22.7830113   9.4981673   3.5371673
  22.2800113   9.0691673   3.1161673  30.4430113  10.0721673  13.8491673
  30.2880113  10.6821673  14.4531673  30.9770113   9.5141673  14.2551673
  30.4990113  10.0801673  13.9981673  28.8270113   8.4721673   4.5071673
  28.8860113   9.1221673   5.0861673  28.6380113   7.7761673   4.9981673
  28.8080113   8.4651673   4.6651673  34.0530113  12.8011673  10.3761673
  33.5740113  13.0991673   9.7101673  33.6970113  12.0251673  10.5541673
  33.9300113  12.7301673  10.3041673  28.0500113  10.5191673   8.9381673
  27.2030113  10.3251673   9.0191673  28.3740113  10.3541673   9.7311673
  27.9720113  10.4661673   9.0671673  21.8980113  10.2121673  11.2541673
  22.6200113  10.7001673  11.2171673  21.6280113  10.1821673  10.4251673
  21.9650113  10.2801673  11.1261673  25.1280113   5.3831673   7.9891673
  25.9740113   5.1931673   8.0871673  24.7580113   4.6061673   7.8511673
  25.1980113   5.2401673   7.9831673  19.9490113   6.7211673   4.6441673
  20.4380113   6.4291673   5.3051673  20.0780113   6.1281673   4.0171673
  20.0400113   6.5901673   4.6491673  34.9840113   9.7431673  11.4951673
  34.9770113   8.9671673  11.8931673  34.1430113   9.9771673  11.4881673
  34.8590113   9.6631673  11.5531673  21.2930113  11.2641673  15.5321673
  20.8720113  10.7461673  14.9711673  20.9410113  12.0501673  15.3891673
  21.1790113  11.3041673  15.4281673  25.9290113   6.6161673   2.8401673
  26.2010113   7.4421673   2.9071673  25.0660113   6.6911673   2.7441673
  25.8420113   6.7491673   2.8351673  33.9020113   3.7381673  17.4721673
  33.3770113   4.1971673  17.9961673  33.5410113   2.9431673  17.4661673
  33.7710113   3.6881673  17.5481673  19.4090113   2.5861673   9.3761673
  19.4530113   2.9301673   8.5751673  20.1640113   2.8231673   9.7431673
  19.5270113   2.6721673   9.3121673  32.3940113   7.3071673  17.5481673
  32.4670113   7.4111673  18.4111673  31.7600113   7.8651673  17.3271673
  32.3110113   7.4051673  17.6431673  34.6620113   7.6261673  15.9131673
  34.9810113   8.4121673  16.1161673  34.2920113   7.3561673  16.6561673
  34.6550113   7.7021673  16.0531673  34.4580113   5.8841673   7.1021673
  33.7130113   5.5611673   7.4201673  34.4600113   6.7101673   7.3821673
  34.3480113   5.9581673   7.1901673  26.0320113  13.0751673  12.1501673
  25.7340113  13.6671673  12.7171673  26.0870113  13.5171673  11.4011673
  25.9960113  13.2281673  12.1231673  24.0110113  12.0251673  15.5481673
  23.2050113  11.7351673  15.7151673  23.9220113  12.8931673  15.5541673
  23.8790113  12.1101673  15.5731673  33.3700113   2.2141673  14.5631673
  34.1140113   2.6661673  14.5001673  32.8040113   2.6841673  14.0941673
  33.3970113   2.3511673  14.4851673  28.5480113   9.4981673  11.6411673
  29.0240113   9.8721673  12.2691673  27.7250113   9.6321673  11.9001673
  28.4970113   9.5731673  11.7721673  25.2580113   5.1011673  14.3821673
  25.4190113   4.3571673  14.8091673  25.2130113   4.8521673  13.5471673
  25.2750113   4.9541673  14.3221673  27.8120113  16.8911673   6.8691673
  28.3580113  17.5701673   6.9231673  27.4620113  16.9731673   6.0741673
  27.8410113  17.0041673   6.7591673  25.9950113  15.1191673  10.2581673
  25.3710113  15.7011673  10.0761673  26.2430113  14.8331673   9.4721673
  25.9390113  15.1631673  10.1151673  30.3040113  11.7531673  17.2471673
  31.0610113  12.0391673  16.9211673  29.7570113  11.8051673  16.5691673
  30.3350113  11.8031673  17.0981673  34.2130113  14.3031673  15.7511673
  34.5590113  14.5731673  16.5051673  34.5070113  14.8851673  15.1711673
  34.3080113  14.4291673  15.7771673  23.5190113   5.9621673  10.3231673
  23.9590113   5.8591673   9.5771673  24.0640113   5.6491673  10.9281673
  23.6640113   5.9011673  10.3021673  31.5350113   5.0641673  15.9151673
  30.8870113   5.5341673  16.2631673  32.1000113   4.9751673  16.5741673
  31.5230113   5.1201673  16.0641673  31.2230113   6.6011673  12.2131673
  31.5250113   7.0211673  12.9161673  31.2590113   5.7611673  12.4451673
  31.2730113   6.5391673  12.3511673  28.6480113  16.7681673  16.1381673
  29.1260113  16.1681673  15.7221673  28.2970113  16.3251673  16.8031673
  28.6670113  16.6141673  16.1751673  33.7710113   6.0481673   4.4651673
  33.9780113   5.8471673   5.2891673  34.5270113   6.3161673   4.1231673
  33.9130113   6.0581673   4.5361673  34.7930113   2.1311673   5.9391673
  34.0790113   1.6601673   6.1101673  34.6310113   2.4721673   5.1531673
  34.6640113   2.1121673   5.8481673  35.2360113  10.0751673   4.3191673
  35.7120113   9.3461673   4.2711673  34.4150113   9.7891673   4.2431673
  35.1850113   9.9251673   4.3001673  28.7070113  11.9871673  15.1581673
  27.9120113  11.9231673  15.5091673  28.7780113  12.8341673  14.9631673
  28.6000113  12.1021673  15.1811673  24.5370113  18.1941673  10.4751673
  24.5480113  18.2531673  11.3451673  24.1120113  17.4471673  10.3251673
  24.4760113  18.0921673  10.5811673  22.6950113   4.0891673   3.6301673
  22.8210113   3.7601673   2.8321673  21.8830113   3.8401673   3.8291673
  22.5940113   4.0041673   3.5421673  31.4520113  11.2421673   6.6741673
  31.5280113  11.5831673   7.4731673  31.6210113  10.3951673   6.7951673
  31.4880113  11.1671673   6.8101673  28.9740113  10.5161673   6.2391673
  28.6760113  10.2011673   6.9961673  29.6690113  10.9891673   6.4741673
  29.0330113  10.5391673   6.3861673  29.1960113  14.6341673  14.2661673
  29.8830113  14.5201673  14.7911673  29.3300113  15.4251673  13.9221673
  29.3170113  14.7341673  14.2931673  31.8850113   7.9081673  14.6531673
  31.6300113   7.1891673  15.0751673  32.7060113   8.0241673  14.9231673
  31.9690113   7.8191673  14.7551673  29.8190113   9.0981673  17.8401673
  30.1420113   9.7841673  17.4081673  29.1150113   9.4211673  18.2421673
  29.7620113   9.2471673  17.8351673  32.9030113  17.4721673   8.7691673
  32.4520113  18.1151673   9.1481673  33.6110113  17.3931673   9.2741673
  32.9410113  17.5551673   8.9001673  29.6040113  12.5621673  11.6991673
  28.9100113  12.9641673  12.0421673  30.2810113  12.9951673  12.0381673
  29.6010113  12.6851673  11.8001673  34.9810113  15.1551673  18.2791673
  35.7570113  14.7651673  18.3621673  34.5120113  14.8191673  18.9341673
  35.0260113  15.0481673  18.3881673  22.6720113   6.1001673  14.0461673
  23.0470113   6.7191673  13.5591673  23.3460113   5.6261673  14.3311673
  22.8270113   6.1221673  14.0161673  20.4470113   4.5481673  13.3211673
  20.5240113   4.3791673  12.4681673  21.1930113   4.9541673  13.5181673
  20.5680113   4.5831673  13.2241673  29.9260113  14.1531673   4.8681673
  29.7210113  14.9861673   4.7091673  29.1510113  13.7711673   4.9901673
  29.7810113  14.2201673   4.8631673  35.1080113   7.3341673  13.1171673
  35.1060113   6.4711673  13.2411673  35.1750113   7.6581673  13.9241673
  35.1180113   7.2541673  13.2541673  19.8440113   9.7741673  13.5451673
  20.1640113   9.9931673  12.7641673  19.7440113   8.9091673  13.4901673
  19.8760113   9.6791673  13.4221673  30.9870113   2.1341673  16.8991673
  31.0790113   2.8461673  17.3931673  30.3500113   1.6891673  17.2961673
  30.9060113   2.1731673  17.0311673  29.9810113   2.3241673   7.7531673
  29.2810113   2.8421673   7.6971673  30.0190113   1.9441673   6.9691673
  29.8830113   2.3451673   7.6291673  33.5790113   2.8401673  10.5531673
  34.4340113   2.9391673  10.6981673  33.2100113   3.3931673  11.1181673
  33.6510113   2.9371673  10.6581673  24.6070113   9.0661673  14.9301673
  24.2110113   9.8401673  15.0051673  24.2010113   8.6931673  14.2541673
  24.4890113   9.1251673  14.8411673  33.8830113   8.1201673   9.0441673
  34.5490113   8.6611673   9.2041673  33.5380113   8.4311673   8.3051673
  33.9300113   8.2461673   8.9591673  34.1960113  16.1861673   4.8511673
  34.0220113  15.5321673   5.4011673  34.9090113  15.9151673   4.4281673
  34.2760113  16.0491673   4.8701673  25.0360113   2.0431673  12.3801673
  24.1720113   2.1271673  12.4601673  25.2560113   1.5291673  13.0491673
  24.9410113   1.9801673  12.4911673  29.1390113   2.7911673  10.7541673
  28.4020113   2.3371673  10.8671673  29.7100113   2.3891673  11.2771673
  29.1140113   2.6641673  10.8481673  31.8710113  13.6391673  12.5421673
  32.0770113  13.9401673  13.3341673  31.8100113  14.3611673  12.0571673
  31.8920113  13.7901673  12.5871673  31.4050113  17.8531673  16.7881673
  30.6520113  17.8351673  16.3471673  31.5730113  18.7051673  16.8721673
  31.3190113  17.9761673  16.7351673  26.6420113   7.1201673  15.9581673
  26.3200113   6.5441673  15.3881673  26.2830113   7.8751673  15.7121673
  26.5420113   7.1461673  15.8381673  34.7880113  15.5381673  10.7971673
  35.3150113  15.4551673  10.1061673  34.3970113  14.7601673  10.8511673
  34.8080113  15.4111673  10.7031673  22.2560113   2.1261673  13.0281673
  21.9130113   1.3591673  12.7941673  21.5610113   2.6501673  13.0921673
  22.1030113   2.0901673  13.0031673  30.6610113   6.7901673   7.4981673
  31.2120113   6.1831673   7.7981673  30.2360113   7.0531673   8.2131673
  30.6800113   6.7391673   7.6471673  20.9090113   5.4401673   6.9841673
  20.5410113   5.7421673   7.7151673  21.4430113   4.8111673   7.2681673
  20.9330113   5.3921673   7.1341673  20.5970113  13.8481673  14.4951673
  20.0230113  14.2641673  15.0041673  21.3300113  14.3131673  14.5901673
  20.6210113  13.9781673  14.5841673  32.6310113   8.6211673   4.0601673
  32.6990113   7.7711673   4.2411673  31.8080113   8.7071673   3.7821673
  32.5190113   8.5081673   4.0461673  22.3830113  17.1151673   3.2701673
  22.2380113  17.2711673   2.4241673  23.2490113  17.1941673   3.3481673
  22.4900113  17.1501673   3.1571673  26.5500113   9.5121673   2.9981673
  26.6500113   9.6511673   2.1431673  27.3680113   9.4521673   3.2941673
  26.6850113   9.5231673   2.9151673  31.7850113  13.8411673   2.8001673
  31.5340113  13.7131673   3.6261673  31.4680113  13.1461673   2.3791673
  31.7010113  13.7201673   2.8601673  25.6890113   2.4871673  16.1141673
  25.9230113   1.9111673  15.5011673  24.8470113   2.3061673  16.2551673
  25.5990113   2.3751673  16.0441673  33.3160113  10.1051673  18.5661673
  34.1870113  10.0691673  18.5301673  33.0970113  10.5251673  17.8341673
  33.4130113  10.1611673  18.4531673  23.0700113  15.9301673   9.7471673
  22.9910113  15.1201673   9.4311673  22.6260113  16.4171673   9.1751673
  22.9930113  15.8821673   9.6161673  28.6710113  12.0491673   2.2301673
  29.3880113  11.7021673   1.8741673  28.6370113  12.8491673   1.8821673
  28.7720113  12.1161673   2.1261673  20.6420113  18.1741673  13.3281673
  21.1350113  18.1181673  14.0461673  20.8300113  17.4411673  12.8931673
  20.7430113  18.0571673  13.3701673  11.2151673  19.1682753  24.4814083
  10.9701673  19.6562753  23.8014083  12.0781673  19.0952753  24.3814083
  11.3061673  19.2292753  24.3664083  11.0241673  26.0842753  29.1524083
  10.5001673  26.6802753  29.5154083  11.4211673  25.7162753  29.8364083
  11.0051673  26.1182753  29.3074083  17.1681673  33.5252753  22.1234083
  17.8691673  33.0062753  22.1194083  16.5811673  33.0802753  21.6544083
  17.1851673  33.3822753  22.0534083   3.7751673  29.2792753  19.7874083
   3.3831673  28.9082753  19.1014083   3.6951673  28.6812753  20.4164083
   3.7051673  29.1362753  19.7784083  13.6951673  27.1512753  25.8284083
  13.7751673  27.1552753  24.9594083  13.1111673  26.5192753  25.9774083
  13.6201673  27.0582753  25.7224083   3.4021673  30.9202753  23.6874083
   4.0101673  30.7502753  24.2904083   2.6511673  30.7802753  24.1084083
   3.3811673  30.8742753  23.8384083   7.6841673  20.2552753  23.6364083
   7.6141673  20.9322753  23.0904083   8.4251673  19.8672753  23.3874083
   7.7831673  20.2982753  23.5184083   2.2931673  34.0112753  19.7644083
   2.7601673  34.0952753  19.0324083   2.7481673  33.4332753  20.2334083
   2.4291673  33.9382753  19.7254083   2.2791673  27.4802753  25.0654083
   1.8171673  27.0882753  24.4384083   2.9791673  26.9672753  25.1574083
   2.3141673  27.3472753  24.9864083   6.7871673  23.0902753  30.4124083
   7.4651673  23.1082753  29.8634083   6.7421673  22.2542753  30.6574083
   6.8801673  22.9692753  30.3674083   7.3891673  33.6762753  33.1934083
   7.5271673  34.4362753  32.7864083   8.1801673  33.3112753  33.2204083
   7.5261673  33.7352753  33.1374083   4.2801673  25.5802753  25.0884083
   5.0971673  25.3932753  25.3314083   3.8031673  24.9662753  25.4844083
   4.3301673  25.4622753  25.1834083   8.4841673  31.5612753  27.6984083
   8.8321673  30.7622753  27.7284083   9.1491673  32.0652753  27.4434083
   8.6341673  31.5172753  27.6654083   8.5411673  31.0102753  23.9094083
   8.8721673  30.3662753  24.3954083   8.7811673  30.7992753  23.0984083
   8.6251673  30.8842753  23.8614083  10.5091673  25.1412753  35.2484083
   9.6611673  25.0422753  35.0704083  10.5381673  25.8862753  35.7024083
  10.3881673  25.2372753  35.2894083   4.8771673  20.6742753  24.3544083
   4.5811673  21.1752753  23.7044083   5.7441673  20.7522753  24.2974083
   4.9611673  20.7602753  24.2504083  15.0671673  18.1012753  34.3624083
  14.9091673  18.8702753  33.9804083  14.2951673  17.8812753  34.7064083
  14.9291673  18.1822753  34.3574083   7.8561673  19.8162753  26.5774083
   7.9291673  20.6762753  26.7064083   7.8181673  19.7412753  25.7094083
   7.8611673  19.9322753  26.4684083   6.4851673  32.7952753  23.4584083
   5.9061673  32.5202753  24.0504083   7.1091673  32.1862753  23.4834083
   6.4921673  32.6652753  23.5494083  12.6281673  35.0832753  20.9804083
  13.3551673  35.5552753  21.0824083  12.8571673  34.2892753  21.2604083
  12.7701673  35.0362753  21.0374083   3.7641673  20.0582753  28.5694083
   3.2431673  19.4302753  28.2614083   4.3551673  19.6212753  29.0404083
   3.7751673  19.9002753  28.5934083   2.1901673  33.6212753  23.9094083
   2.8461673  33.0462753  23.9244083   2.5791673  34.3702753  23.6884083
   2.3451673  33.6462753  23.8794083  17.9231673  22.7152753  25.1714083
  17.5771673  23.3932753  25.5974083  17.2871673  22.1172753  25.1874083
  17.7781673  22.7272753  25.2364083   3.0081673  32.1082753  27.4094083
   3.4311673  31.7522753  26.7354083   3.3321673  31.6862753  28.1014083
   3.1181673  31.9932753  27.4124083  10.0461673  24.3572753  24.7924083
  10.3331673  24.1252753  24.0024083  10.7781673  24.4362753  25.2614083
  10.1961673  24.3342753  24.7454083  10.7681673  24.6962753  19.9134083
  11.0491673  25.4842753  20.1624083   9.9921673  24.8612753  19.5504083
  10.6951673  24.8372753  19.8964083  17.5981673  21.0382753  30.5404083
  18.3551673  21.1102753  30.1124083  17.6611673  20.2652753  30.9394083
  17.7191673  20.9352753  30.5354083  12.4891673  32.6702753  34.9794083
  12.4551673  33.0522753  35.7634083  13.3431673  32.6282753  34.8084083
  12.6101673  32.7202753  35.0704083   9.6271673  32.8672753  19.7294083
   9.4461673  33.4122753  20.3864083  10.3931673  33.1572753  19.4284083
   9.7131673  32.9912753  19.7824083   3.2301673  34.3412753  31.5674083
   2.5321673  33.8332753  31.6934083   3.4901673  34.1362753  30.7594083
   3.1651673  34.2362753  31.4664083  10.3921673  23.1392753  22.0974083
   9.8841673  22.4772753  21.8434083  10.4441673  23.6432753  21.3874083
  10.3251673  23.1162753  21.9554083  10.3921673  20.0802753  21.9884083
   9.9371673  19.6782753  21.3624083  11.1651673  20.2352753  21.6134083
  10.4391673  20.0442753  21.8404083   8.9901673  22.4472753  26.5104083
   9.0641673  23.0152753  25.8524083   9.1111673  22.9392753  27.2204083
   9.0181673  22.6042753  26.5184083  14.2151673  32.2822753  24.9224083
  14.9161673  31.8002753  25.1114083  13.5551673  31.7132753  24.9674083
  14.2211673  32.1272753  24.9564083   4.5911673  33.1922753  34.1344083
   5.4321673  33.2552753  33.9124083   4.5541673  33.5892753  34.9104083
   4.7101673  33.2602753  34.2164083   3.5981673  18.2702753  24.8584083
   4.1341673  18.9582753  24.8484083   3.6011673  17.9962753  24.0304083
   3.6771673  18.3312753  24.7344083   6.5541673  28.7032753  28.8834083
   6.7261673  28.4932753  29.7124083   5.8991673  28.1692753  28.6674083
   6.4831673  28.5932753  28.9744083  12.7821673  22.6172753  32.3984083
  12.6871673  22.9362753  33.2044083  12.1891673  21.9782753  32.3604083
  12.6801673  22.5692753  32.5124083   7.3041673  28.6412753  31.4734083
   7.3571673  29.4882753  31.6754083   7.0191673  28.2712753  32.2104083
   7.2701673  28.7112753  31.6114083  13.4811673  29.3362753  30.6034083
  12.9671673  28.9242753  31.1744083  13.3551673  30.1802753  30.7844083
  13.3871673  29.4002753  30.7144083  14.0381673  18.5612753  25.2344083
  14.0871673  18.2432753  26.0454083  14.3611673  17.9172753  24.7414083
  14.0931673  18.4192753  25.2814083  16.5021673  22.7972753  33.5424083
  17.2741673  22.5722753  33.8794083  16.0271673  23.0142753  34.2424083
  16.5461673  22.7962753  33.6954083   4.0461673  22.0802753  26.5124083
   4.3181673  21.6502753  25.8044083   3.8701673  21.4442753  27.0834083
   4.0601673  21.9232753  26.4924083  16.7341673  29.7752753  20.7304083
  16.8531673  29.4882753  21.5454083  17.5411673  29.7962753  20.4004083
  16.8701673  29.7362753  20.8024083   3.8701673  29.5072753  26.0614083
   4.7211673  29.4272753  25.8884083   3.5131673  28.8252753  25.6494083
   3.9431673  29.3942753  25.9744083   2.1871673  23.1822753  29.5944083
   3.0301673  23.4022753  29.5514083   1.7981673  23.7552753  29.0634083
   2.2541673  23.2992753  29.5094083  18.9681673  34.2842753  34.9844083
  18.2861673  34.5942753  34.5374083  18.5991673  33.8262753  35.6294083
  18.8121673  34.2622753  35.0134083  14.6291673  26.3122753  20.3154083
  14.4091673  27.0432753  19.8934083  14.1811673  26.3632753  21.0624083
  14.5301673  26.4272753  20.3634083   6.2381673  29.5142753  24.2964083
   6.9511673  30.0092753  24.3864083   6.4601673  28.9472753  23.6704083
   6.3761673  29.5032753  24.2174083  19.1391673  25.5512753  32.3244083
  19.3541673  24.7512753  32.0484083  18.2891673  25.6112753  32.1354083
  19.0451673  25.4422753  32.2554083  10.7611673  33.2172753  26.6234083
  10.2381673  33.8512753  26.3304083  11.0711673  32.8532753  25.8944083
  10.7291673  33.2572753  26.4724083   4.8361673  31.0052753  29.3834083
   5.3031673  31.2942753  30.0614083   5.4081673  30.5272753  28.9294083
   4.9901673  30.9772753  29.4164083  13.2721673  23.0192753  27.1204083
  13.6161673  23.1712753  27.9074083  12.8191673  22.2812753  27.2334083
  13.2561673  22.9322753  27.2534083   7.7481673  22.2392753  21.5774083
   7.7461673  22.1222753  20.7124083   7.5671673  23.0872753  21.6694083
   7.7211673  22.3472753  21.4634083  16.8021673  34.6662753  33.0744083
  16.1311673  35.1802753  33.2924083  16.8651673  34.7662753  32.2104083
  16.7121673  34.7572753  32.9794083   5.4861673  32.1912753  26.2094083
   5.6121673  33.0342753  26.3964083   6.1541673  31.7922753  26.6054083
   5.6041673  32.2572753  26.2954083   4.1011673  25.0712753  21.2114083
   3.9731673  24.6232753  21.9494083   3.5191673  24.7292753  20.6594083
   3.9961673  24.9542753  21.2394083   4.2681673  26.9012753  27.8104083
   3.4871673  26.8422753  27.4274083   4.3401673  26.1492753  28.2474083
   4.1631673  26.7822753  27.8184083   4.6981673  26.6382753  31.2784083
   4.7231673  25.9632753  30.7274083   4.0521673  27.1342753  30.9664083
   4.6071673  26.6112753  31.1514083  14.5931673  24.3512753  29.6744083
  13.9311673  24.6792753  30.1374083  14.7801673  24.9852753  29.1054083
  14.5231673  24.4932753  29.6584083  11.2381673  20.2572753  33.1034083
  11.3871673  19.4322753  32.8604083  11.6171673  20.3122753  33.8874083
  11.3161673  20.1432753  33.1834083  12.7861673  22.3202753  23.1854083
  13.2761673  23.0372753  23.1084083  11.9961673  22.5812753  22.9224083
  12.7421673  22.4642753  23.1354083  14.1001673  30.1982753  35.0954083
  14.5841673  30.9162753  35.1934083  14.4941673  29.7712753  34.4444083
  14.2301673  30.2412753  35.0134083   9.3681673  23.7902753  28.9104083
   9.8481673  24.4892753  29.1184083   9.7411673  23.1432753  29.3614083
   9.4941673  23.7982753  29.0074083  11.5571673  26.9592753  21.1844083
  11.5491673  27.6812753  20.6944083  10.9181673  27.0942753  21.7614083
  11.4621673  27.0862753  21.1974083  16.5291673  30.8292753  25.1654083
  16.8851673  30.4792753  25.8804083  16.5211673  30.1682753  24.5954083
  16.5811673  30.6792753  25.1864083  12.5741673  33.8952753  29.0094083
  11.9711673  33.5992753  28.4524083  13.1191673  34.3472753  28.5004083
  12.5651673  33.9182753  28.8514083  12.5871673  30.7462753  28.4094083
  11.7901673  30.9702753  28.6834083  12.8451673  30.1522753  28.9944083
  12.5071673  30.6912753  28.5364083   6.4791673  35.5582753  22.8574083
   6.3321673  34.7822753  23.2284083   7.1681673  35.4112753  22.3424083
   6.5591673  35.4212753  22.8364083   6.1501673  19.3012753  20.8454083
   6.2471673  19.1942753  21.7064083   5.4421673  19.8072753  20.7804083
   6.0601673  19.3602753  20.9634083  15.8471673  28.7442753  33.2554083
  15.9021673  28.8692753  32.3934083  16.6001673  29.0642753  33.5574083
  15.9661673  28.8092753  33.1724083   3.2721673  27.6082753  22.0884083
   3.5961673  26.8292753  21.8664083   3.9181673  27.9762753  22.5434083
   3.4151673  27.5472753  22.1224083  11.5781673  28.5502753  32.8554083
  11.4231673  29.1602753  33.4594083  12.1121673  27.9922753  33.2614083
  11.6341673  28.5582753  33.0044083   9.9621673  26.9502753  23.5134083
  10.0211673  27.6002753  24.0924083   9.7731673  26.2542753  24.0044083
   9.9431673  26.9432753  23.6714083  15.1881673  31.2792753  29.3824083
  14.7091673  31.5772753  28.7164083  14.8321673  30.5032753  29.5604083
  15.0651673  31.2082753  29.3104083   4.4581673  21.4672753  20.0254083
   3.9471673  21.5202753  19.3194083   5.2421673  21.7072753  19.7294083
   4.4981673  21.5102753  19.8774083   9.1851673  28.9972753  27.9444083
   8.3381673  28.8032753  28.0254083   9.5091673  28.8322753  28.7374083
   9.1071673  28.9442753  28.0734083   3.0331673  28.6902753  30.2604083
   3.7551673  29.1782753  30.2234083   2.7631673  28.6602753  29.4314083
   3.1001673  28.7582753  30.1324083   6.2631673  23.8612753  26.9954083
   7.1091673  23.6712753  27.0934083   5.8931673  23.0842753  26.8574083
   6.3331673  23.7182753  26.9894083  18.8801673  35.4452753  21.3224083
  19.5741673  34.9782753  21.0744083  18.3411673  34.8472753  21.6594083
  18.9031673  35.2872753  21.3354083  16.1191673  28.2212753  30.5014083
  16.1121673  27.4452753  30.8994083  15.2781673  28.4552753  30.4944083
  15.9941673  28.1412753  30.5594083   5.6091673  26.6332753  19.1364083
   4.9991673  26.2282753  19.6104083   5.2231673  26.7512753  18.3634083
   5.4621673  26.5902753  19.0924083   2.4281673  29.7422753  34.5384083
   2.0071673  29.2242753  33.9774083   2.0761673  30.5282753  34.3954083
   2.3141673  29.7822753  34.4344083  17.3751673  28.2922753  27.9384083
  17.0891673  28.6932753  28.6584083  18.2351673  28.2302753  28.0654083
  17.4601673  28.3422753  28.0634083   7.0641673  25.0942753  21.8464083
   7.3361673  25.9202753  21.9134083   6.2011673  25.1692753  21.7504083
   6.9771673  25.2272753  21.8414083  18.5061673  33.9252753  28.4674083
  18.7961673  34.1822753  27.6864083  19.2011673  34.0212753  28.9864083
  18.6521673  33.9772753  28.4284083  15.7971673  26.1042753  34.9194083
  16.1161673  26.8902753  35.1224083  15.4271673  25.8342753  35.6624083
  15.7901673  26.1802753  35.0594083  15.1111673  32.5282753  20.4494083
  15.4451673  31.7222753  20.4844083  14.3561673  32.4562753  20.8794083
  15.0491673  32.3982753  20.5184083  15.5931673  24.3622753  26.1084083
  14.8481673  24.0392753  26.4264083  15.5951673  25.1882753  26.3884083
  15.4831673  24.4362753  26.1964083  18.0331673  30.3222753  33.8604083
  18.6611673  29.7732753  33.6044083  17.9721673  30.8872753  33.1984083
  18.1171673  30.3252753  33.7244083  12.4851673  30.4032753  19.8524083
  13.1691673  29.8892753  19.6834083  12.0681673  30.4492753  19.0874083
  12.5241673  30.3342753  19.7144083   7.1671673  31.5532753  31.1564083
   6.8691673  32.1452753  31.7234083   7.2221673  31.9952753  30.4074083
   7.1311673  31.7062753  31.1294083   5.1461673  30.5032753  34.5544083
   4.3401673  30.2132753  34.7214083   5.0571673  31.3712753  34.5604083
   5.0141673  30.5882753  34.5794083  14.5051673  20.6922753  33.5694083
  15.2491673  21.1442753  33.5064083  13.9391673  21.1622753  33.1004083
  14.5321673  20.8292753  33.4914083   9.6831673  27.9762753  30.6474083
  10.1591673  28.3502753  31.2754083   8.8601673  28.1102753  30.9064083
   9.6321673  28.0512753  30.7784083   6.3931673  23.5792753  33.3884083
   6.5541673  22.8352753  33.8154083   6.3481673  23.3302753  32.5534083
   6.4101673  23.4322753  33.3284083  15.7901673  18.6722753  31.2394083
  15.5101673  19.4972753  31.1954083  16.5061673  18.7252753  31.7354083
  15.8551673  18.8022753  31.3064083   8.1451673  19.3872753  33.2684083
   8.8501673  19.7072753  32.8664083   8.3861673  18.5802753  33.4954083
   8.2841673  19.3152753  33.2424083   7.1301673  33.5972753  29.2644083
   6.5061673  34.1792753  29.0824083   7.3781673  33.3112753  28.4784083
   7.0741673  33.6412753  29.1214083  15.3481673  32.7812753  34.7574083
  15.6941673  33.0512753  35.5114083  15.6421673  33.3632753  34.1774083
  15.4431673  32.9072753  34.7834083  17.2111673  24.9272753  20.0964083
  17.5891673  25.6042753  19.6964083  16.3691673  25.1512753  20.1274083
  17.1421673  25.0602753  20.0414083   8.7241673  28.3732753  19.1794083
   7.9191673  28.1962753  18.8944083   8.6911673  29.2242753  19.3714083
   8.6001673  28.4722753  19.1664083   4.6541673  24.4402753  29.3294083
   5.0941673  24.3372753  28.5834083   5.1991673  24.1272753  29.9344083
   4.7991673  24.3792753  29.3084083  12.6701673  23.5422753  34.9214083
  12.0221673  24.0122753  35.2694083  13.2351673  23.4532753  35.5804083
  12.6581673  23.5982753  35.0704083  12.3581673  25.0792753  31.2194083
  12.6601673  25.4992753  31.9224083  12.3941673  24.2392753  31.4514083
  12.4081673  25.0172753  31.3574083   9.7831673  35.2462753  35.1444083
  10.2611673  34.6462753  34.7284083   9.4321673  34.8032753  35.8094083
   9.8021673  35.0922753  35.1814083  14.9061673  24.5262753  23.4714083
  15.1131673  24.3252753  24.2954083  15.6621673  24.7942753  23.1294083
  15.0481673  24.5362753  23.5424083   8.2011673  19.4252753  29.3764083
   7.3751673  19.2762753  29.6134083   8.1611673  19.4602753  28.5054083
   8.0731673  19.4082753  29.2824083  15.9281673  20.6092753  24.9454083
  15.2141673  20.1382753  25.1164083  15.7661673  20.9502753  24.1594083
  15.7991673  20.5902753  24.8544083  16.3711673  28.5532753  23.3254083
  16.8471673  27.8242753  23.2774083  15.5501673  28.2672753  23.2494083
  16.3201673  28.4032753  23.3064083   9.8421673  30.4652753  34.1644083
   9.0471673  30.4012753  34.5154083   9.9131673  31.3122753  33.9694083
   9.7351673  30.5802753  34.1874083   3.8301673  22.5672753  22.6364083
   3.9561673  22.2382753  21.8384083   3.0181673  22.3182753  22.8354083
   3.7291673  22.4822753  22.5484083  12.5871673  29.7202753  25.6804083
  12.6631673  30.0612753  26.4794083  12.7561673  28.8732753  25.8014083
  12.6231673  29.6452753  25.8164083  10.1091673  28.9942753  25.2454083
   9.8111673  28.6792753  26.0024083  10.8041673  29.4672753  25.4804083
  10.1681673  29.0172753  25.3924083  10.3311673  33.1122753  33.2724083
  11.0181673  32.9982753  33.7974083  10.4651673  33.9032753  32.9284083
  10.4521673  33.2122753  33.2994083  18.5071673  25.7212753  35.0834083
  17.6521673  25.5992753  35.2094083  18.6601673  25.3262753  34.3204083
  18.4031673  25.6442753  34.9894083  13.0201673  26.3862753  33.6594083
  12.7651673  25.6672753  34.0814083  13.8411673  26.5022753  33.9294083
  13.1041673  26.2972753  33.7614083  10.7391673  31.0402753  30.7054083
  10.0451673  31.4422753  31.0484083  11.4161673  31.4732753  31.0444083
  10.7361673  31.1632753  30.8064083   3.8071673  24.5782753  33.0524083
   4.1821673  25.1972753  32.5654083   4.4811673  24.1042753  33.3374083
   3.9621673  24.6002753  33.0224083  17.1411673  25.6662753  22.7674083
  17.2441673  25.6082753  21.9034083  17.8821673  25.3342753  23.0854083
  17.2661673  25.6092753  22.6864083   4.1361673  20.4362753  34.7384083
   4.0551673  19.5922753  34.9444083   3.8221673  20.4802753  33.9254083
   4.0781673  20.3182753  34.6484083  11.0611673  32.6312753  23.8744083
  10.8561673  33.4642753  23.7154083  10.2861673  32.2492753  23.9964083
  10.9161673  32.6982753  23.8694083  16.2431673  25.8122753  32.1234083
  16.2411673  24.9492753  32.2474083  16.3101673  26.1362753  32.9304083
  16.2531673  25.7322753  32.2604083   2.4351673  24.1882753  19.1694083
   1.7631673  24.2022753  19.7254083   2.5301673  23.3402753  18.9854083
   2.3501673  24.0652753  19.2244083  11.1161673  20.8022753  26.7594083
  10.4161673  21.3202753  26.7034083  11.1541673  20.4222753  25.9754083
  11.0181673  20.8232753  26.6354083   6.4231673  32.8932753  20.2834083
   6.8641673  32.9732753  21.0314083   5.6181673  32.6772753  20.5414083
   6.3691673  32.8732753  20.4324083  14.7141673  21.3182753  29.5594083
  15.5691673  21.4172753  29.7044083  14.3451673  21.8712753  30.1244083
  14.7861673  21.4152753  29.6644083   5.7421673  27.5442753  33.9364083
   5.3461673  28.3182753  34.0114083   5.3361673  27.1712753  33.2604083
   5.6241673  27.6032753  33.8474083  15.0181673  26.5982753  28.0504083
  15.6841673  27.1392753  28.2104083  14.6731673  26.9092753  27.3114083
  15.0651673  26.7242753  27.9654083  15.3311673  34.6642753  23.8574083
  15.1571673  34.0102753  24.4074083  16.0441673  34.3932753  23.4344083
  15.4111673  34.5272753  23.8764083   3.7521673  31.9632753  20.8844083
   3.5081673  31.6562753  21.6644083   3.7191673  31.2602753  20.3684083
   3.7111673  31.8142753  20.9234083   6.5711673  30.2082753  19.6274083
   5.7531673  29.9402753  19.7674083   6.5431673  31.0602753  19.8124083
   6.4461673  30.2952753  19.6754083   6.1711673  20.5212753  31.3864083
   5.3071673  20.6052753  31.4664083   6.3911673  20.0072753  32.0554083
   6.0761673  20.4582753  31.4974083  18.1891673  19.1562753  32.7154083
  18.1371673  19.1122753  33.5854083  18.8761673  18.6532753  32.5254083
  18.2831673  19.0762753  32.8154083  10.2741673  21.2692753  29.7604083
   9.5371673  20.8152753  29.8734083  10.8451673  20.8672753  30.2834083
  10.2491673  21.1422753  29.8544083  13.0061673  32.1172753  31.5484083
  13.2121673  32.4182753  32.3404083  12.9451673  32.8392753  31.0634083
  13.0271673  32.2682753  31.5934083   7.7771673  25.5982753  34.9644083
   7.4551673  25.0222753  34.3944083   7.4181673  26.3532753  34.7184083
   7.6771673  25.6242753  34.8444083   8.5731673  18.8502753  19.5914083
   8.6511673  19.0972753  18.7584083   7.8301673  19.2272753  19.8494083
   8.4751673  18.9422753  19.5064083  17.8181673  30.7562753  31.0064083
  17.7861673  29.8942753  30.8714083  17.1251673  31.0582753  30.5724083
  17.7111673  30.6732753  30.9224083  15.9231673  34.0162753  29.8034083
  16.4501673  33.9332753  29.1124083  15.5321673  33.2382753  29.8574083
  15.9431673  33.8892753  29.7094083   3.3911673  20.6042753  32.0344083
   3.0481673  19.8372753  31.8004083   2.6961673  21.1282753  32.0984083
   3.2381673  20.5682753  32.0094083  12.4371673  19.4602753  29.0114083
  13.1071673  20.0042753  29.1384083  11.9341673  19.8842753  28.4384083
  12.4621673  19.6032753  28.9454083  11.7961673  25.2682753  26.5044083
  12.3471673  24.6612753  26.8044083  11.3711673  25.5312753  27.2194083
  11.8151673  25.2172753  26.6534083   2.0441673  23.9182753  25.9904083
   1.6761673  24.2202753  26.7214083   2.5781673  23.2892753  26.2744083
   2.0681673  23.8702753  26.1404083  13.7661673  27.0992753  23.0664083
  13.8341673  26.2492753  23.2474083  12.9431673  27.1852753  22.7884083
  13.6541673  26.9862753  23.0524083   7.6851673  27.9902753  22.0044083
   7.7851673  28.1292753  21.1494083   8.5031673  27.9302753  22.3004083
   7.8201673  28.0012753  21.9214083  12.9201673  32.3192753  21.8064083
  12.6691673  32.1912753  22.6324083  12.6031673  31.6242753  21.3854083
  12.8361673  32.1982753  21.8664083  17.5641673  23.9772753  29.9264083
  16.7311673  24.2272753  29.8544083  17.5081673  23.1372753  30.1554083
  17.4331673  23.8902753  29.9494083   6.8241673  20.9652753  35.1204083
   7.0581673  20.3892753  34.5074083   5.9821673  20.7842753  35.2614083
   6.7341673  20.8532753  35.0504083   4.2051673  34.4082753  28.7534083
   4.1261673  33.5982753  28.4374083   3.7611673  34.8952753  28.1814083
   4.1281673  34.3602753  28.6224083   9.8061673  30.5272753  21.2364083
  10.5231673  30.1802753  20.8804083   9.7721673  31.3272753  20.8884083
   9.9071673  30.5942753  21.1324083  11.2151673  19.1682753   5.4751673
  10.9701673  19.6562753   4.7951673  12.0781673  19.0952753   5.3751673
  11.3061673  19.2292753   5.3601673  11.0241673  26.0842753  10.1461673
  10.5001673  26.6802753  10.5091673  11.4211673  25.7162753  10.8301673
  11.0051673  26.1182753  10.3011673  17.1681673  33.5252753   3.1171673
  17.8691673  33.0062753   3.1131673  16.5811673  33.0802753   2.6481673
  17.1851673  33.3822753   3.0471673  13.6951673  27.1512753   6.8221673
  13.7751673  27.1552753   5.9531673  13.1111673  26.5192753   6.9711673
  13.6201673  27.0582753   6.7161673   3.4021673  30.9202753   4.6811673
   4.0101673  30.7502753   5.2841673   2.6511673  30.7802753   5.1021673
   3.3811673  30.8742753   4.8321673   7.6841673  20.2552753   4.6301673
   7.6141673  20.9322753   4.0841673   8.4251673  19.8672753   4.3811673
   7.7831673  20.2982753   4.5121673   7.4071673  30.4842753  16.9241673
   7.1711673  30.4812753  17.7641673   6.6591673  30.3362753  16.5001673
   7.2611673  30.4612753  16.9851673   2.2791673  27.4802753   6.0591673
   1.8171673  27.0882753   5.4321673   2.9791673  26.9672753   6.1511673
   2.3141673  27.3472753   5.9801673   6.7871673  23.0902753  11.4061673
   7.4651673  23.1082753  10.8571673   6.7421673  22.2542753  11.6511673
   6.8801673  22.9692753  11.3611673   7.3891673  33.6762753  14.1871673
   7.5271673  34.4362753  13.7801673   8.1801673  33.3112753  14.2141673
   7.5261673  33.7352753  14.1311673   4.2801673  25.5802753   6.0821673
   5.0971673  25.3932753   6.3251673   3.8031673  24.9662753   6.4781673
   4.3301673  25.4622753   6.1771673   8.4841673  31.5612753   8.6921673
   8.8321673  30.7622753   8.7221673   9.1491673  32.0652753   8.4371673
   8.6341673  31.5172753   8.6591673   8.5411673  31.0102753   4.9031673
   8.8721673  30.3662753   5.3891673   8.7811673  30.7992753   4.0921673
   8.6251673  30.8842753   4.8551673  10.5091673  25.1412753  16.2421673
   9.6611673  25.0422753  16.0641673  10.5381673  25.8862753  16.6961673
  10.3881673  25.2372753  16.2831673   4.8771673  20.6742753   5.3481673
   4.5811673  21.1752753   4.6981673   5.7441673  20.7522753   5.2911673
   4.9611673  20.7602753   5.2441673   7.8561673  19.8162753   7.5711673
   7.9291673  20.6762753   7.7001673   7.8181673  19.7412753   6.7031673
   7.8611673  19.9322753   7.4621673   6.4851673  32.7952753   4.4521673
   5.9061673  32.5202753   5.0441673   7.1091673  32.1862753   4.4771673
   6.4921673  32.6652753   4.5431673  12.6281673  35.0832753   1.9741673
  13.3551673  35.5552753   2.0761673  12.8571673  34.2892753   2.2541673
  12.7701673  35.0362753   2.0311673   3.7641673  20.0582753   9.5631673
   3.2431673  19.4302753   9.2551673   4.3551673  19.6212753  10.0341673
   3.7751673  19.9002753   9.5871673   7.0701673  22.1912753  18.8611673
   7.1871673  21.7372753  18.1251673   7.3581673  22.9892753  18.6581673
   7.1301673  22.2422753  18.7221673   2.1901673  33.6212753   4.9031673
   2.8461673  33.0462753   4.9181673   2.5791673  34.3702753   4.6821673
   2.3451673  33.6462753   4.8731673  17.9231673  22.7152753   6.1651673
  17.5771673  23.3932753   6.5911673  17.2871673  22.1172753   6.1811673
  17.7781673  22.7272753   6.2301673   2.8031673  21.7882753  17.8451673
   2.0251673  21.3982753  17.7731673   3.2941673  21.3762753  17.2541673
   2.7601673  21.6692753  17.7471673   3.0081673  32.1082753   8.4031673
   3.4311673  31.7522753   7.7291673   3.3321673  31.6862753   9.0951673
   3.1181673  31.9932753   8.4061673   9.4521673  19.4312753  17.0131673
   9.6301673  18.6222753  16.7381673   9.3091673  19.8722753  16.2741673
   9.4571673  19.3772753  16.8631673  10.0461673  24.3572753   5.7861673
  10.3331673  24.1252753   4.9961673  10.7781673  24.4362753   6.2551673
  10.1961673  24.3342753   5.7391673  17.5981673  21.0382753  11.5341673
  18.3551673  21.1102753  11.1061673  17.6611673  20.2652753  11.9331673
  17.7191673  20.9352753  11.5291673  12.4891673  32.6702753  15.9731673
  12.4551673  33.0522753  16.7571673  13.3431673  32.6282753  15.8021673
  12.6101673  32.7202753  16.0641673  13.1341673  20.7632753   1.7771673
  13.6741673  20.0812753   1.8531673  13.1961673  21.1612753   2.5511673
  13.2231673  20.7212753   1.9031673   3.2301673  34.3412753  12.5611673
   2.5321673  33.8332753  12.6871673   3.4901673  34.1362753  11.7531673
   3.1651673  34.2362753  12.4601673  10.3921673  23.1392753   3.0911673
   9.8841673  22.4772753   2.8371673  10.4441673  23.6432753   2.3811673
  10.3251673  23.1162753   2.9491673  10.3921673  20.0802753   2.9821673
   9.9371673  19.6782753   2.3561673  11.1651673  20.2352753   2.6071673
  10.4391673  20.0442753   2.8341673   8.9901673  22.4472753   7.5041673
   9.0641673  23.0152753   6.8461673   9.1111673  22.9392753   8.2141673
   9.0181673  22.6042753   7.5121673  14.2151673  32.2822753   5.9161673
  14.9161673  31.8002753   6.1051673  13.5551673  31.7132753   5.9611673
  14.2211673  32.1272753   5.9501673   4.5911673  33.1922753  15.1281673
   5.4321673  33.2552753  14.9061673   4.5541673  33.5892753  15.9041673
   4.7101673  33.2602753  15.2101673   3.5981673  18.2702753   5.8521673
   4.1341673  18.9582753   5.8421673   3.6011673  17.9962753   5.0241673
   3.6771673  18.3312753   5.7281673   6.5541673  28.7032753   9.8771673
   6.7261673  28.4932753  10.7061673   5.8991673  28.1692753   9.6611673
   6.4831673  28.5932753   9.9681673  12.7821673  22.6172753  13.3921673
  12.6871673  22.9362753  14.1981673  12.1891673  21.9782753  13.3541673
  12.6801673  22.5692753  13.5061673   7.3041673  28.6412753  12.4671673
   7.3571673  29.4882753  12.6691673   7.0191673  28.2712753  13.2041673
   7.2701673  28.7112753  12.6051673  13.4811673  29.3362753  11.5971673
  12.9671673  28.9242753  12.1681673  13.3551673  30.1802753  11.7781673
  13.3871673  29.4002753  11.7081673  14.0381673  18.5612753   6.2281673
  14.0871673  18.2432753   7.0391673  14.3611673  17.9172753   5.7351673
  14.0931673  18.4192753   6.2751673  16.5021673  22.7972753  14.5361673
  17.2741673  22.5722753  14.8731673  16.0271673  23.0142753  15.2361673
  16.5461673  22.7962753  14.6891673   4.0461673  22.0802753   7.5061673
   4.3181673  21.6502753   6.7981673   3.8701673  21.4442753   8.0771673
   4.0601673  21.9232753   7.4861673   3.8701673  29.5072753   7.0551673
   4.7211673  29.4272753   6.8821673   3.5131673  28.8252753   6.6431673
   3.9431673  29.3942753   6.9681673   2.1871673  23.1822753  10.5881673
   3.0301673  23.4022753  10.5451673   1.7981673  23.7552753  10.0571673
   2.2541673  23.2992753  10.5031673  18.9681673  34.2842753  15.9781673
  18.2861673  34.5942753  15.5311673  18.5991673  33.8262753  16.6231673
  18.8121673  34.2622753  16.0071673   6.2381673  29.5142753   5.2901673
   6.9511673  30.0092753   5.3801673   6.4601673  28.9472753   4.6641673
   6.3761673  29.5032753   5.2111673   8.0411673  24.8672753  18.7061673
   7.5571673  25.4442753  19.1481673   8.0131673  25.1622753  17.8851673
   7.9651673  24.9962753  18.6501673  19.1391673  25.5512753  13.3181673
  19.3541673  24.7512753  13.0421673  18.2891673  25.6112753  13.1291673
  19.0451673  25.4422753  13.2491673  16.8181673  20.7312753   3.0411673
  17.5641673  20.3242753   3.2401673  17.0811673  21.4462753   2.6161673
  16.9671673  20.7772753   3.0081673  10.7611673  33.2172753   7.6171673
  10.2381673  33.8512753   7.3241673  11.0711673  32.8532753   6.8881673
  10.7291673  33.2572753   7.4661673   4.8361673  31.0052753  10.3771673
   5.3031673  31.2942753  11.0551673   5.4081673  30.5272753   9.9231673
   4.9901673  30.9772753  10.4101673  13.2721673  23.0192753   8.1141673
  13.6161673  23.1712753   8.9011673  12.8191673  22.2812753   8.2271673
  13.2561673  22.9322753   8.2471673   7.7481673  22.2392753   2.5711673
   7.7461673  22.1222753   1.7061673   7.5671673  23.0872753   2.6631673
   7.7211673  22.3472753   2.4571673  16.8021673  34.6662753  14.0681673
  16.1311673  35.1802753  14.2861673  16.8651673  34.7662753  13.2041673
  16.7121673  34.7572753  13.9731673   5.4861673  32.1912753   7.2031673
   5.6121673  33.0342753   7.3901673   6.1541673  31.7922753   7.5991673
   5.6041673  32.2572753   7.2891673   3.6161673  25.6742753  17.0651673
   3.0801673  25.1682753  17.5331673   3.6361673  25.2842753  16.2851673
   3.5391673  25.5412753  17.0191673   4.1011673  25.0712753   2.2051673
   3.9731673  24.6232753   2.9431673   3.5191673  24.7292753   1.6531673
   3.9961673  24.9542753   2.2331673   4.2681673  26.9012753   8.8041673
   3.4871673  26.8422753   8.4211673   4.3401673  26.1492753   9.2411673
   4.1631673  26.7822753   8.8121673   4.6981673  26.6382753  12.2721673
   4.7231673  25.9632753  11.7211673   4.0521673  27.1342753  11.9601673
   4.6071673  26.6112753  12.1451673  14.5931673  24.3512753  10.6681673
  13.9311673  24.6792753  11.1311673  14.7801673  24.9852753  10.0991673
  14.5231673  24.4932753  10.6521673  11.2381673  20.2572753  14.0971673
  11.3871673  19.4322753  13.8541673  11.6171673  20.3122753  14.8811673
  11.3161673  20.1432753  14.1771673  12.7861673  22.3202753   4.1791673
  13.2761673  23.0372753   4.1021673  11.9961673  22.5812753   3.9161673
  12.7421673  22.4642753   4.1291673   2.4971673  27.9932753  17.8311673
   2.4601673  28.4942753  17.1171673   2.8281673  27.2412753  17.5361673
   2.5401673  27.9552753  17.6821673  14.1001673  30.1982753  16.0891673
  14.5841673  30.9162753  16.1871673  14.4941673  29.7712753  15.4381673
  14.2301673  30.2412753  16.0071673   8.3961673  33.0432753  17.2661673
   8.7501673  32.8652753  18.0431673   7.9601673  32.3142753  17.0671673
   8.3841673  32.9092753  17.3521673   9.3681673  23.7902753   9.9041673
   9.8481673  24.4892753  10.1121673   9.7411673  23.1432753  10.3551673
   9.4941673  23.7982753  10.0011673  11.5571673  26.9592753   2.1781673
  11.5491673  27.6812753   1.6881673  10.9181673  27.0942753   2.7551673
  11.4621673  27.0862753   2.1911673  16.5291673  30.8292753   6.1591673
  16.8851673  30.4792753   6.8741673  16.5211673  30.1682753   5.5891673
  16.5811673  30.6792753   6.1801673  12.5741673  33.8952753  10.0031673
  11.9711673  33.5992753   9.4461673  13.1191673  34.3472753   9.4941673
  12.5651673  33.9182753   9.8451673  12.5871673  30.7462753   9.4031673
  11.7901673  30.9702753   9.6771673  12.8451673  30.1522753   9.9881673
  12.5071673  30.6912753   9.5301673   6.4791673  35.5582753   3.8511673
   6.3321673  34.7822753   4.2221673   7.1681673  35.4112753   3.3361673
   6.5591673  35.4212753   3.8301673   6.1501673  19.3012753   1.8391673
   6.2471673  19.1942753   2.7001673   5.4421673  19.8072753   1.7741673
   6.0601673  19.3602753   1.9571673  15.8471673  28.7442753  14.2491673
  15.9021673  28.8692753  13.3871673  16.6001673  29.0642753  14.5511673
  15.9661673  28.8092753  14.1661673  12.0381673  34.0932753  18.5261673
  12.2021673  34.3762753  19.3351673  12.3011673  34.7542753  18.0211673
  12.1011673  34.2332753  18.5711673   3.2721673  27.6082753   3.0821673
   3.5961673  26.8292753   2.8601673   3.9181673  27.9762753   3.5371673
   3.4151673  27.5472753   3.1161673  11.5781673  28.5502753  13.8491673
  11.4231673  29.1602753  14.4531673  12.1121673  27.9922753  14.2551673
  11.6341673  28.5582753  13.9981673   9.9621673  26.9502753   4.5071673
  10.0211673  27.6002753   5.0861673   9.7731673  26.2542753   4.9981673
   9.9431673  26.9432753   4.6651673  15.1881673  31.2792753  10.3761673
  14.7091673  31.5772753   9.7101673  14.8321673  30.5032753  10.5541673
  15.0651673  31.2082753  10.3041673   9.1851673  28.9972753   8.9381673
   8.3381673  28.8032753   9.0191673   9.5091673  28.8322753   9.7311673
   9.1071673  28.9442753   9.0671673   3.0331673  28.6902753  11.2541673
   3.7551673  29.1782753  11.2171673   2.7631673  28.6602753  10.4251673
   3.1001673  28.7582753  11.1261673   6.2631673  23.8612753   7.9891673
   7.1091673  23.6712753   8.0871673   5.8931673  23.0842753   7.8511673
   6.3331673  23.7182753   7.9831673  18.8801673  35.4452753   2.3161673
  19.5741673  34.9782753   2.0681673  18.3411673  34.8472753   2.6531673
  18.9031673  35.2872753   2.3291673  16.1191673  28.2212753  11.4951673
  16.1121673  27.4452753  11.8931673  15.2781673  28.4552753  11.4881673
  15.9941673  28.1412753  11.5531673   2.4281673  29.7422753  15.5321673
   2.0071673  29.2242753  14.9711673   2.0761673  30.5282753  15.3891673
   2.3141673  29.7822753  15.4281673  17.3751673  28.2922753   8.9321673
  17.0891673  28.6932753   9.6521673  18.2351673  28.2302753   9.0591673
  17.4601673  28.3422753   9.0571673   7.0641673  25.0942753   2.8401673
   7.3361673  25.9202753   2.9071673   6.2011673  25.1692753   2.7441673
   6.9771673  25.2272753   2.8351673  18.5061673  33.9252753   9.4611673
  18.7961673  34.1822753   8.6801673  19.2011673  34.0212753   9.9801673
  18.6521673  33.9772753   9.4221673  13.5291673  25.7852753  17.5481673
  13.6021673  25.8892753  18.4111673  12.8951673  26.3432753  17.3271673
  13.4461673  25.8832753  17.6431673  15.7971673  26.1042753  15.9131673
  16.1161673  26.8902753  16.1161673  15.4271673  25.8342753  16.6561673
  15.7901673  26.1802753  16.0531673  15.5931673  24.3622753   7.1021673
  14.8481673  24.0392753   7.4201673  15.5951673  25.1882753   7.3821673
  15.4831673  24.4362753   7.1901673  18.4951673  26.6462753  18.6481673
  18.4431673  26.3052753  17.8471673  19.2321673  27.1132753  18.6261673
  18.5961673  26.6652753  18.5261673  18.0331673  30.3222753  14.8541673
  18.6611673  29.7732753  14.5981673  17.9721673  30.8872753  14.1921673
  18.1171673  30.3252753  14.7181673   7.1671673  31.5532753  12.1501673
   6.8691673  32.1452753  12.7171673   7.2221673  31.9952753  11.4011673
   7.1311673  31.7062753  12.1231673   5.1461673  30.5032753  15.5481673
   4.3401673  30.2132753  15.7151673   5.0571673  31.3712753  15.5541673
   5.0141673  30.5882753  15.5731673  14.5051673  20.6922753  14.5631673
  15.2491673  21.1442753  14.5001673  13.9391673  21.1622753  14.0941673
  14.5321673  20.8292753  14.4851673   9.6831673  27.9762753  11.6411673
  10.1591673  28.3502753  12.2691673   8.8601673  28.1102753  11.9001673
   9.6321673  28.0512753  11.7721673   6.3931673  23.5792753  14.3821673
   6.5541673  22.8352753  14.8091673   6.3481673  23.3302753  13.5471673
   6.4101673  23.4322753  14.3221673  15.7901673  18.6722753  12.2331673
  15.5101673  19.4972753  12.1891673  16.5061673  18.7252753  12.7291673
  15.8551673  18.8022753  12.3001673   8.1451673  19.3872753  14.2621673
   8.8501673  19.7072753  13.8601673   8.3861673  18.5802753  14.4891673
   8.2841673  19.3152753  14.2361673   7.1301673  33.5972753  10.2581673
   6.5061673  34.1792753  10.0761673   7.3781673  33.3112753   9.4721673
   7.0741673  33.6412753  10.1151673  11.4391673  30.2312753  17.2471673
  12.1961673  30.5172753  16.9211673  10.8921673  30.2832753  16.5691673
  11.4701673  30.2812753  17.0981673  15.3481673  32.7812753  15.7511673
  15.6941673  33.0512753  16.5051673  15.6421673  33.3632753  15.1711673
  15.4431673  32.9072753  15.7771673   4.6541673  24.4402753  10.3231673
   5.0941673  24.3372753   9.5771673   5.1991673  24.1272753  10.9281673
   4.7991673  24.3792753  10.3021673  12.6701673  23.5422753  15.9151673
  12.0221673  24.0122753  16.2631673  13.2351673  23.4532753  16.5741673
  12.6581673  23.5982753  16.0641673  12.3581673  25.0792753  12.2131673
  12.6601673  25.4992753  12.9161673  12.3941673  24.2392753  12.4451673
  12.4081673  25.0172753  12.3511673   9.7831673  35.2462753  16.1381673
  10.2611673  34.6462753  15.7221673   9.4321673  34.8032753  16.8031673
   9.8021673  35.0922753  16.1751673  14.9061673  24.5262753   4.4651673
  15.1131673  24.3252753   5.2891673  15.6621673  24.7942753   4.1231673
  15.0481673  24.5362753   4.5361673   8.2011673  19.4252753  10.3701673
   7.3751673  19.2762753  10.6071673   8.1611673  19.4602753   9.4991673
   8.0731673  19.4082753  10.2761673  15.9281673  20.6092753   5.9391673
  15.2141673  20.1382753   6.1101673  15.7661673  20.9502753   5.1531673
  15.7991673  20.5902753   5.8481673  16.3711673  28.5532753   4.3191673
  16.8471673  27.8242753   4.2711673  15.5501673  28.2672753   4.2431673
  16.3201673  28.4032753   4.3001673   9.8421673  30.4652753  15.1581673
   9.0471673  30.4012753  15.5091673   9.9131673  31.3122753  14.9631673
   9.7351673  30.5802753  15.1811673   3.8301673  22.5672753   3.6301673
   3.9561673  22.2382753   2.8321673   3.0181673  22.3182753   3.8291673
   3.7291673  22.4822753   3.5421673  12.5871673  29.7202753   6.6741673
  12.6631673  30.0612753   7.4731673  12.7561673  28.8732753   6.7951673
  12.6231673  29.6452753   6.8101673  10.1091673  28.9942753   6.2391673
   9.8111673  28.6792753   6.9961673  10.8041673  29.4672753   6.4741673
  10.1681673  29.0172753   6.3861673  10.3311673  33.1122753  14.2661673
  11.0181673  32.9982753  14.7911673  10.4651673  33.9032753  13.9221673
  10.4521673  33.2122753  14.2931673  18.5071673  25.7212753  16.0771673
  17.6521673  25.5992753  16.2031673  18.6601673  25.3262753  15.3141673
  18.4031673  25.6442753  15.9831673  13.0201673  26.3862753  14.6531673
  12.7651673  25.6672753  15.0751673  13.8411673  26.5022753  14.9231673
  13.1041673  26.2972753  14.7551673  10.9541673  27.5762753  17.8401673
  11.2771673  28.2622753  17.4081673  10.2501673  27.8992753  18.2421673
  10.8971673  27.7252753  17.8351673  10.7391673  31.0402753  11.6991673
  10.0451673  31.4422753  12.0421673  11.4161673  31.4732753  12.0381673
  10.7361673  31.1632753  11.8001673  16.1161673  33.6332753  18.2791673
  16.8921673  33.2432753  18.3621673  15.6471673  33.2972753  18.9341673
  16.1611673  33.5262753  18.3881673   3.8071673  24.5782753  14.0461673
   4.1821673  25.1972753  13.5591673   4.4811673  24.1042753  14.3311673
   3.9621673  24.6002753  14.0161673  17.1411673  25.6662753   3.7611673
  17.2441673  25.6082753   2.8971673  17.8821673  25.3342753   4.0791673
  17.2661673  25.6092753   3.6801673   4.1361673  20.4362753  15.7321673
   4.0551673  19.5922753  15.9381673   3.8221673  20.4802753  14.9191673
   4.0781673  20.3182753  15.6421673  11.0611673  32.6312753   4.8681673
  10.8561673  33.4642753   4.7091673  10.2861673  32.2492753   4.9901673
  10.9161673  32.6982753   4.8631673  16.2431673  25.8122753  13.1171673
  16.2411673  24.9492753  13.2411673  16.3101673  26.1362753  13.9241673
  16.2531673  25.7322753  13.2541673  11.1161673  20.8022753   7.7531673
  10.4161673  21.3202753   7.6971673  11.1541673  20.4222753   6.9691673
  11.0181673  20.8232753   7.6291673  14.7141673  21.3182753  10.5531673
  15.5691673  21.4172753  10.6981673  14.3451673  21.8712753  11.1181673
  14.7861673  21.4152753  10.6581673   5.7421673  27.5442753  14.9301673
   5.3461673  28.3182753  15.0051673   5.3361673  27.1712753  14.2541673
   5.6241673  27.6032753  14.8411673  15.0181673  26.5982753   9.0441673
  15.6841673  27.1392753   9.2041673  14.6731673  26.9092753   8.3051673
  15.0651673  26.7242753   8.9591673  15.3311673  34.6642753   4.8511673
  15.1571673  34.0102753   5.4011673  16.0441673  34.3932753   4.4281673
  15.4111673  34.5272753   4.8701673   6.1711673  20.5212753  12.3801673
   5.3071673  20.6052753  12.4601673   6.3911673  20.0072753  13.0491673
   6.0761673  20.4582753  12.4911673  18.1891673  19.1562753  13.7091673
  18.1371673  19.1122753  14.5791673  18.8761673  18.6532753  13.5191673
  18.2831673  19.0762753  13.8091673  10.2741673  21.2692753  10.7541673
   9.5371673  20.8152753  10.8671673  10.8451673  20.8672753  11.2771673
  10.2491673  21.1422753  10.8481673  13.0061673  32.1172753  12.5421673
  13.2121673  32.4182753  13.3341673  12.9451673  32.8392753  12.0571673
  13.0271673  32.2682753  12.5871673   7.7771673  25.5982753  15.9581673
   7.4551673  25.0222753  15.3881673   7.4181673  26.3532753  15.7121673
   7.6771673  25.6242753  15.8381673  17.8181673  30.7562753  12.0001673
  17.7861673  29.8942753  11.8651673  17.1251673  31.0582753  11.5661673
  17.7111673  30.6732753  11.9161673  15.9231673  34.0162753  10.7971673
  16.4501673  33.9332753  10.1061673  15.5321673  33.2382753  10.8511673
  15.9431673  33.8892753  10.7031673   3.3911673  20.6042753  13.0281673
   3.0481673  19.8372753  12.7941673   2.6961673  21.1282753  13.0921673
   3.2381673  20.5682753  13.0031673  12.4371673  19.4602753  10.0051673
  13.1071673  20.0042753  10.1321673  11.9341673  19.8842753   9.4321673
  12.4621673  19.6032753   9.9391673   3.8051673  34.3372753  17.5661673
   4.4001673  34.7682753  18.0381673   3.4411673  34.9612753  17.0771673
   3.8391673  34.4932753  17.5631673  11.7961673  25.2682753   7.4981673
  12.3471673  24.6612753   7.7981673  11.3711673  25.5312753   8.2131673
  11.8151673  25.2172753   7.6471673   2.0441673  23.9182753   6.9841673
   1.6761673  24.2202753   7.7151673   2.5781673  23.2892753   7.2681673
   2.0681673  23.8702753   7.1341673  13.7661673  27.0992753   4.0601673
  13.8341673  26.2492753   4.2411673  12.9431673  27.1852753   3.7821673
  13.6541673  26.9862753   4.0461673   7.6851673  27.9902753   2.9981673
   7.7851673  28.1292753   2.1431673   8.5031673  27.9302753   3.2941673
   7.8201673  28.0012753   2.9151673  17.0401673  28.4722753  17.2111673
  17.6741673  28.3022753  17.7851673  17.4571673  28.8752753  16.5591673
  17.1951673  28.5072753  17.2001673  12.9201673  32.3192753   2.8001673
  12.6691673  32.1912753   3.6261673  12.6031673  31.6242753   2.3791673
  12.8361673  32.1982753   2.8601673  17.5641673  23.9772753  10.9201673
  16.7311673  24.2272753  10.8481673  17.5081673  23.1372753  11.1491673
  17.4331673  23.8902753  10.9431673   6.8241673  20.9652753  16.1141673
   7.0581673  20.3892753  15.5011673   5.9821673  20.7842753  16.2551673
   6.7341673  20.8532753  16.0441673  14.4511673  28.5832753  18.5661673
  15.3221673  28.5472753  18.5301673  14.2321673  29.0032753  17.8341673
  14.5481673  28.6392753  18.4531673   4.2051673  34.4082753   9.7471673
   4.1261673  33.5982753   9.4311673   3.7611673  34.8952753   9.1751673
   4.1281673  34.3602753   9.6161673   9.8061673  30.5272753   2.2301673
  10.5231673  30.1802753   1.8741673   9.7721673  31.3272753   1.8821673
   9.9071673  30.5942753   2.1261673  11.0241673   7.6061673  29.1524083
  10.5001673   8.2021673  29.5154083  11.4211673   7.2381673  29.8364083
  11.0051673   7.6401673  29.3074083  17.1681673  15.0471673  22.1234083
  17.8691673  14.5281673  22.1194083  16.5811673  14.6021673  21.6544083
  17.1851673  14.9041673  22.0534083   3.7751673  10.8011673  19.7874083
   3.3831673  10.4301673  19.1014083   3.6951673  10.2031673  20.4164083
   3.7051673  10.6581673  19.7784083  13.6951673   8.6731673  25.8284083
  13.7751673   8.6771673  24.9594083  13.1111673   8.0411673  25.9774083
  13.6201673   8.5801673  25.7224083   3.4021673  12.4421673  23.6874083
   4.0101673  12.2721673  24.2904083   2.6511673  12.3021673  24.1084083
   3.3811673  12.3961673  23.8384083   7.6841673   1.7771673  23.6364083
   7.6141673   2.4541673  23.0904083   8.4251673   1.3891673  23.3874083
   7.7831673   1.8201673  23.5184083   2.2931673  15.5331673  19.7644083
   2.7601673  15.6171673  19.0324083   2.7481673  14.9551673  20.2334083
   2.4291673  15.4601673  19.7254083   2.2791673   9.0021673  25.0654083
   1.8171673   8.6101673  24.4384083   2.9791673   8.4891673  25.1574083
   2.3141673   8.8691673  24.9864083   6.7871673   4.6121673  30.4124083
   7.4651673   4.6301673  29.8634083   6.7421673   3.7761673  30.6574083
   6.8801673   4.4911673  30.3674083   7.3891673  15.1981673  33.1934083
   7.5271673  15.9581673  32.7864083   8.1801673  14.8331673  33.2204083
   7.5261673  15.2571673  33.1374083   4.2801673   7.1021673  25.0884083
   5.0971673   6.9151673  25.3314083   3.8031673   6.4881673  25.4844083
   4.3301673   6.9841673  25.1834083   8.4841673  13.0831673  27.6984083
   8.8321673  12.2841673  27.7284083   9.1491673  13.5871673  27.4434083
   8.6341673  13.0391673  27.6654083   8.5411673  12.5321673  23.9094083
   8.8721673  11.8881673  24.3954083   8.7811673  12.3211673  23.0984083
   8.6251673  12.4061673  23.8614083  10.5091673   6.6631673  35.2484083
   9.6611673   6.5641673  35.0704083  10.5381673   7.4081673  35.7024083
  10.3881673   6.7591673  35.2894083   4.8771673   2.1961673  24.3544083
   4.5811673   2.6971673  23.7044083   5.7441673   2.2741673  24.2974083
   4.9611673   2.2821673  24.2504083  12.5291673   4.2641673  18.8764083
  12.0791673   4.9451673  19.1834083  12.6431673   3.7601673  19.5794083
  12.4801673   4.2901673  19.0254083   6.4851673  14.3171673  23.4584083
   5.9061673  14.0421673  24.0504083   7.1091673  13.7081673  23.4834083
   6.4921673  14.1871673  23.5494083  10.7961673  16.9971673  22.9704083
  11.0101673  17.5241673  23.6324083  11.5631673  16.8231673  22.5914083
  10.9411673  17.0491673  23.0124083   2.1901673  15.1431673  23.9094083
   2.8461673  14.5681673  23.9244083   2.5791673  15.8921673  23.6884083
   2.3451673  15.1681673  23.8794083  17.9231673   4.2371673  25.1714083
  17.5771673   4.9151673  25.5974083  17.2871673   3.6391673  25.1874083
  17.7781673   4.2491673  25.2364083  13.2351673  17.0071673  31.2754083
  13.9791673  17.4631673  31.2654083  13.1141673  16.7931673  30.4384083
  13.3271673  17.0431673  31.1504083   3.0081673  13.6301673  27.4094083
   3.4311673  13.2741673  26.7354083   3.3321673  13.2081673  28.1014083
   3.1181673  13.5151673  27.4124083   6.2391673  16.4821673  26.7054083
   7.0831673  16.5861673  26.5104083   5.9421673  17.3001673  26.7734083
   6.3201673  16.6181673  26.6864083  10.0461673   5.8791673  24.7924083
  10.3331673   5.6471673  24.0024083  10.7781673   5.9581673  25.2614083
  10.1961673   5.8561673  24.7454083  10.7681673   6.2181673  19.9134083
  11.0491673   7.0061673  20.1624083   9.9921673   6.3831673  19.5504083
  10.6951673   6.3591673  19.8964083   5.2371673  17.7011673  32.4454083
   5.5291673  17.6341673  33.2654083   4.6111673  17.0961673  32.4004083
   5.1881673  17.6021673  32.5604083  17.5981673   2.5601673  30.5404083
  18.3551673   2.6321673  30.1124083  17.6611673   1.7871673  30.9394083
  17.7191673   2.4571673  30.5354083  12.4891673  14.1921673  34.9794083
  12.4551673  14.5741673  35.7634083  13.3431673  14.1501673  34.8084083
  12.6101673  14.2421673  35.0704083   9.6271673  14.3891673  19.7294083
   9.4461673  14.9341673  20.3864083  10.3931673  14.6791673  19.4284083
   9.7131673  14.5131673  19.7824083  13.1341673   2.2851673  20.7834083
  13.6741673   1.6031673  20.8594083  13.1961673   2.6831673  21.5574083
  13.2231673   2.2431673  20.9094083   3.2301673  15.8631673  31.5674083
   2.5321673  15.3551673  31.6934083   3.4901673  15.6581673  30.7594083
   3.1651673  15.7581673  31.4664083  10.3921673   4.6611673  22.0974083
   9.8841673   3.9991673  21.8434083  10.4441673   5.1651673  21.3874083
  10.3251673   4.6381673  21.9554083  10.9411673  17.3561673  32.4774083
  11.7091673  17.2761673  32.0714083  10.3581673  17.2351673  31.8394083
  10.9681673  17.3261673  32.3234083  17.2181673  17.9591673  25.3784083
  16.7631673  18.6761673  25.5794083  16.6041673  17.3881673  25.1364083
  17.0601673  17.9811673  25.3724083   8.9901673   3.9691673  26.5104083
   9.0641673   4.5371673  25.8524083   9.1111673   4.4611673  27.2204083
   9.0181673   4.1261673  26.5184083  14.2151673  13.8041673  24.9224083
  14.9161673  13.3221673  25.1114083  13.5551673  13.2351673  24.9674083
  14.2211673  13.6491673  24.9564083   4.5911673  14.7141673  34.1344083
   5.4321673  14.7771673  33.9124083   4.5541673  15.1111673  34.9104083
   4.7101673  14.7821673  34.2164083   6.5541673  10.2251673  28.8834083
   6.7261673  10.0151673  29.7124083   5.8991673   9.6911673  28.6674083
   6.4831673  10.1151673  28.9744083  12.7821673   4.1391673  32.3984083
  12.6871673   4.4581673  33.2044083  12.1891673   3.5001673  32.3604083
  12.6801673   4.0911673  32.5124083   7.3041673  10.1631673  31.4734083
   7.3571673  11.0101673  31.6754083   7.0191673   9.7931673  32.2104083
   7.2701673  10.2331673  31.6114083  13.4811673  10.8581673  30.6034083
  12.9671673  10.4461673  31.1744083  13.3551673  11.7021673  30.7844083
  13.3871673  10.9221673  30.7144083  16.5021673   4.3191673  33.5424083
  17.2741673   4.0941673  33.8794083  16.0271673   4.5361673  34.2424083
  16.5461673   4.3181673  33.6954083   4.0461673   3.6021673  26.5124083
   4.3181673   3.1721673  25.8044083   3.8701673   2.9661673  27.0834083
   4.0601673   3.4451673  26.4924083  16.7341673  11.2971673  20.7304083
  16.8531673  11.0101673  21.5454083  17.5411673  11.3181673  20.4004083
  16.8701673  11.2581673  20.8024083   3.8701673  11.0291673  26.0614083
   4.7211673  10.9491673  25.8884083   3.5131673  10.3471673  25.6494083
   3.9431673  10.9161673  25.9744083   2.6371673  17.7541673  27.2984083
   1.9641673  17.2561673  27.0534083   3.0401673  17.9391673  26.5474083
   2.5971673  17.7081673  27.1514083   2.1871673   4.7041673  29.5944083
   3.0301673   4.9241673  29.5514083   1.7981673   5.2771673  29.0634083
   2.2541673   4.8211673  29.5094083  18.9681673  15.8061673  34.9844083
  18.2861673  16.1161673  34.5374083  18.5991673  15.3481673  35.6294083
  18.8121673  15.7841673  35.0134083  14.6291673   7.8341673  20.3154083
  14.4091673   8.5651673  19.8934083  14.1811673   7.8851673  21.0624083
  14.5301673   7.9491673  20.3634083   6.2381673  11.0361673  24.2964083
   6.9511673  11.5311673  24.3864083   6.4601673  10.4691673  23.6704083
   6.3761673  11.0251673  24.2174083  18.8161673   2.6951673  19.7684083
  18.1541673   2.1271673  19.7914083  18.6231673   3.2071673  19.0884083
  18.6901673   2.6871673  19.6714083  19.1391673   7.0731673  32.3244083
  19.3541673   6.2731673  32.0484083  18.2891673   7.1331673  32.1354083
  19.0451673   6.9641673  32.2554083  16.8181673   2.2531673  22.0474083
  17.5641673   1.8461673  22.2464083  17.0811673   2.9681673  21.6224083
  16.9671673   2.2991673  22.0144083  10.7611673  14.7391673  26.6234083
  10.2381673  15.3731673  26.3304083  11.0711673  14.3751673  25.8944083
  10.7291673  14.7791673  26.4724083   4.8361673  12.5271673  29.3834083
   5.3031673  12.8161673  30.0614083   5.4081673  12.0491673  28.9294083
   4.9901673  12.4991673  29.4164083  13.2721673   4.5411673  27.1204083
  13.6161673   4.6931673  27.9074083  12.8191673   3.8031673  27.2334083
  13.2561673   4.4541673  27.2534083   7.7481673   3.7611673  21.5774083
   7.7461673   3.6441673  20.7124083   7.5671673   4.6091673  21.6694083
   7.7211673   3.8691673  21.4634083  16.8021673  16.1881673  33.0744083
  16.1311673  16.7021673  33.2924083  16.8651673  16.2881673  32.2104083
  16.7121673  16.2791673  32.9794083   5.4861673  13.7131673  26.2094083
   5.6121673  14.5561673  26.3964083   6.1541673  13.3141673  26.6054083
   5.6041673  13.7791673  26.2954083   4.1011673   6.5931673  21.2114083
   3.9731673   6.1451673  21.9494083   3.5191673   6.2511673  20.6594083
   3.9961673   6.4761673  21.2394083   4.2681673   8.4231673  27.8104083
   3.4871673   8.3641673  27.4274083   4.3401673   7.6711673  28.2474083
   4.1631673   8.3041673  27.8184083   4.6981673   8.1601673  31.2784083
   4.7231673   7.4851673  30.7274083   4.0521673   8.6561673  30.9664083
   4.6071673   8.1331673  31.1514083  14.5931673   5.8731673  29.6744083
  13.9311673   6.2011673  30.1374083  14.7801673   6.5071673  29.1054083
  14.5231673   6.0151673  29.6584083   8.7981673  16.9371673  30.6704083
   8.5211673  16.2961673  30.1474083   8.5901673  17.6631673  30.2324083
   8.7271673  16.9501673  30.5284083  12.7861673   3.8421673  23.1854083
  13.2761673   4.5591673  23.1084083  11.9961673   4.1031673  22.9224083
  12.7421673   3.9861673  23.1354083  14.1001673  11.7201673  35.0954083
  14.5841673  12.4381673  35.1934083  14.4941673  11.2931673  34.4444083
  14.2301673  11.7631673  35.0134083   9.3681673   5.3121673  28.9104083
   9.8481673   6.0111673  29.1184083   9.7411673   4.6651673  29.3614083
   9.4941673   5.3201673  29.0074083  11.5571673   8.4811673  21.1844083
  11.5491673   9.2031673  20.6944083  10.9181673   8.6161673  21.7614083
  11.4621673   8.6081673  21.1974083  16.5291673  12.3511673  25.1654083
  16.8851673  12.0011673  25.8804083  16.5211673  11.6901673  24.5954083
  16.5811673  12.2011673  25.1864083  12.5741673  15.4171673  29.0094083
  11.9711673  15.1211673  28.4524083  13.1191673  15.8691673  28.5004083
  12.5651673  15.4401673  28.8514083  12.5871673  12.2681673  28.4094083
  11.7901673  12.4921673  28.6834083  12.8451673  11.6741673  28.9944083
  12.5071673  12.2131673  28.5364083   6.4791673  17.0801673  22.8574083
   6.3321673  16.3041673  23.2284083   7.1681673  16.9331673  22.3424083
   6.5591673  16.9431673  22.8364083   8.7711673  16.5961673  21.2594083
   9.3931673  16.7591673  21.8494083   8.8071673  17.2871673  20.7274083
   8.8681673  16.7221673  21.2684083  15.8471673  10.2661673  33.2554083
  15.9021673  10.3911673  32.3934083  16.6001673  10.5861673  33.5574083
  15.9661673  10.3311673  33.1724083   3.2721673   9.1301673  22.0884083
   3.5961673   8.3511673  21.8664083   3.9181673   9.4981673  22.5434083
   3.4151673   9.0691673  22.1224083  11.5781673  10.0721673  32.8554083
  11.4231673  10.6821673  33.4594083  12.1121673   9.5141673  33.2614083
  11.6341673  10.0801673  33.0044083   9.9621673   8.4721673  23.5134083
  10.0211673   9.1221673  24.0924083   9.7731673   7.7761673  24.0044083
   9.9431673   8.4651673  23.6714083  15.1881673  12.8011673  29.3824083
  14.7091673  13.0991673  28.7164083  14.8321673  12.0251673  29.5604083
  15.0651673  12.7301673  29.3104083   4.4581673   2.9891673  20.0254083
   3.9471673   3.0421673  19.3194083   5.2421673   3.2291673  19.7294083
   4.4981673   3.0321673  19.8774083   9.1851673  10.5191673  27.9444083
   8.3381673  10.3251673  28.0254083   9.5091673  10.3541673  28.7374083
   9.1071673  10.4661673  28.0734083   5.9371673  17.2491673  18.8304083
   6.3761673  16.5521673  19.1184083   6.1441673  17.8731673  19.4034083
   6.0331673  17.2381673  18.9574083   3.0331673  10.2121673  30.2604083
   3.7551673  10.7001673  30.2234083   2.7631673  10.1821673  29.4314083
   3.1001673  10.2801673  30.1324083   6.2631673   5.3831673  26.9954083
   7.1091673   5.1931673  27.0934083   5.8931673   4.6061673  26.8574083
   6.3331673   5.2401673  26.9894083  16.1191673   9.7431673  30.5014083
  16.1121673   8.9671673  30.8994083  15.2781673   9.9771673  30.4944083
  15.9941673   9.6631673  30.5594083   5.6091673   8.1551673  19.1364083
   4.9991673   7.7501673  19.6104083   5.2231673   8.2731673  18.3634083
   5.4621673   8.1121673  19.0924083   2.4281673  11.2641673  34.5384083
   2.0071673  10.7461673  33.9774083   2.0761673  12.0501673  34.3954083
   2.3141673  11.3041673  34.4344083  17.3751673   9.8141673  27.9384083
  17.0891673  10.2151673  28.6584083  18.2351673   9.7521673  28.0654083
  17.4601673   9.8641673  28.0634083   7.0641673   6.6161673  21.8464083
   7.3361673   7.4421673  21.9134083   6.2011673   6.6911673  21.7504083
   6.9771673   6.7491673  21.8414083  18.5061673  15.4471673  28.4674083
  18.7961673  15.7041673  27.6864083  19.2011673  15.5431673  28.9864083
  18.6521673  15.4991673  28.4284083  15.7971673   7.6261673  34.9194083
  16.1161673   8.4121673  35.1224083  15.4271673   7.3561673  35.6624083
  15.7901673   7.7021673  35.0594083  15.5931673   5.8841673  26.1084083
  14.8481673   5.5611673  26.4264083  15.5951673   6.7101673  26.3884083
  15.4831673   5.9581673  26.1964083  18.0331673  11.8441673  33.8604083
  18.6611673  11.2951673  33.6044083  17.9721673  12.4091673  33.1984083
  18.1171673  11.8471673  33.7244083  12.4851673  11.9251673  19.8524083
  13.1691673  11.4111673  19.6834083  12.0681673  11.9711673  19.0874083
  12.5241673  11.8561673  19.7144083   7.1671673  13.0751673  31.1564083
   6.8691673  13.6671673  31.7234083   7.2221673  13.5171673  30.4074083
   7.1311673  13.2281673  31.1294083   5.1461673  12.0251673  34.5544083
   4.3401673  11.7351673  34.7214083   5.0571673  12.8931673  34.5604083
   5.0141673  12.1101673  34.5794083  14.5051673   2.2141673  33.5694083
  15.2491673   2.6661673  33.5064083  13.9391673   2.6841673  33.1004083
  14.5321673   2.3511673  33.4914083   9.6831673   9.4981673  30.6474083
  10.1591673   9.8721673  31.2754083   8.8601673   9.6321673  30.9064083
   9.6321673   9.5731673  30.7784083   6.3931673   5.1011673  33.3884083
   6.5541673   4.3571673  33.8154083   6.3481673   4.8521673  32.5534083
   6.4101673   4.9541673  33.3284083   8.9471673  16.8911673  25.8754083
   9.4931673  17.5701673  25.9294083   8.5971673  16.9731673  25.0804083
   8.9761673  17.0041673  25.7654083   7.1301673  15.1191673  29.2644083
   6.5061673  15.7011673  29.0824083   7.3781673  14.8331673  28.4784083
   7.0741673  15.1631673  29.1214083  15.3481673  14.3031673  34.7574083
  15.6941673  14.5731673  35.5114083  15.6421673  14.8851673  34.1774083
  15.4431673  14.4291673  34.7834083  17.2111673   6.4491673  20.0964083
  17.5891673   7.1261673  19.6964083  16.3691673   6.6731673  20.1274083
  17.1421673   6.5821673  20.0414083   8.7241673   9.8951673  19.1794083
   7.9191673   9.7181673  18.8944083   8.6911673  10.7461673  19.3714083
   8.6001673   9.9941673  19.1664083   4.6541673   5.9621673  29.3294083
   5.0941673   5.8591673  28.5834083   5.1991673   5.6491673  29.9344083
   4.7991673   5.9011673  29.3084083  12.6701673   5.0641673  34.9214083
  12.0221673   5.5341673  35.2694083  13.2351673   4.9751673  35.5804083
  12.6581673   5.1201673  35.0704083  12.3581673   6.6011673  31.2194083
  12.6601673   7.0211673  31.9224083  12.3941673   5.7611673  31.4514083
  12.4081673   6.5391673  31.3574083   9.7831673  16.7681673  35.1444083
  10.2611673  16.1681673  34.7284083   9.4321673  16.3251673  35.8094083
   9.8021673  16.6141673  35.1814083  14.9061673   6.0481673  23.4714083
  15.1131673   5.8471673  24.2954083  15.6621673   6.3161673  23.1294083
  15.0481673   6.0581673  23.5424083  15.9281673   2.1311673  24.9454083
  15.2141673   1.6601673  25.1164083  15.7661673   2.4721673  24.1594083
  15.7991673   2.1121673  24.8544083  16.3711673  10.0751673  23.3254083
  16.8471673   9.3461673  23.2774083  15.5501673   9.7891673  23.2494083
  16.3201673   9.9251673  23.3064083   9.8421673  11.9871673  34.1644083
   9.0471673  11.9231673  34.5154083   9.9131673  12.8341673  33.9694083
   9.7351673  12.1021673  34.1874083   5.6721673  18.1941673  29.4814083
   5.6831673  18.2531673  30.3514083   5.2471673  17.4471673  29.3314083
   5.6111673  18.0921673  29.5874083   3.8301673   4.0891673  22.6364083
   3.9561673   3.7601673  21.8384083   3.0181673   3.8401673  22.8354083
   3.7291673   4.0041673  22.5484083  12.5871673  11.2421673  25.6804083
  12.6631673  11.5831673  26.4794083  12.7561673  10.3951673  25.8014083
  12.6231673  11.1671673  25.8164083  10.1091673  10.5161673  25.2454083
   9.8111673  10.2011673  26.0024083  10.8041673  10.9891673  25.4804083
  10.1681673  10.5391673  25.3924083  10.3311673  14.6341673  33.2724083
  11.0181673  14.5201673  33.7974083  10.4651673  15.4251673  32.9284083
  10.4521673  14.7341673  33.2994083  18.5071673   7.2431673  35.0834083
  17.6521673   7.1211673  35.2094083  18.6601673   6.8481673  34.3204083
  18.4031673   7.1661673  34.9894083  13.0201673   7.9081673  33.6594083
  12.7651673   7.1891673  34.0814083  13.8411673   8.0241673  33.9294083
  13.1041673   7.8191673  33.7614083   2.4361673  17.6921673  34.9234083
   1.7821673  17.1231673  35.0214083   2.0611673  18.4651673  35.0744083
   2.2841673  17.7221673  34.9604083  14.0381673  17.4721673  27.7754083
  13.5871673  18.1151673  28.1544083  14.7461673  17.3931673  28.2804083
  14.0761673  17.5551673  27.9064083  10.7391673  12.5621673  30.7054083
  10.0451673  12.9641673  31.0484083  11.4161673  12.9951673  31.0444083
  10.7361673  12.6851673  30.8064083   3.8071673   6.1001673  33.0524083
   4.1821673   6.7191673  32.5654083   4.4811673   5.6261673  33.3374083
   3.9621673   6.1221673  33.0224083  17.1411673   7.1881673  22.7674083
  17.2441673   7.1301673  21.9034083  17.8821673   6.8561673  23.0854083
  17.2661673   7.1311673  22.6864083  11.0611673  14.1531673  23.8744083
  10.8561673  14.9861673  23.7154083  10.2861673  13.7711673  23.9964083
  10.9161673  14.2201673  23.8694083  16.2431673   7.3341673  32.1234083
  16.2411673   6.4711673  32.2474083  16.3101673   7.6581673  32.9304083
  16.2531673   7.2541673  32.2604083   2.4351673   5.7101673  19.1694083
   1.7631673   5.7241673  19.7254083   2.5301673   4.8621673  18.9854083
   2.3501673   5.5871673  19.2244083  11.1161673   2.3241673  26.7594083
  10.4161673   2.8421673  26.7034083  11.1541673   1.9441673  25.9754083
  11.0181673   2.3451673  26.6354083   6.4231673  14.4151673  20.2834083
   6.8641673  14.4951673  21.0314083   5.6181673  14.1991673  20.5414083
   6.3691673  14.3951673  20.4324083  14.7141673   2.8401673  29.5594083
  15.5691673   2.9391673  29.7044083  14.3451673   3.3931673  30.1244083
  14.7861673   2.9371673  29.6644083   5.7421673   9.0661673  33.9364083
   5.3461673   9.8401673  34.0114083   5.3361673   8.6931673  33.2604083
   5.6241673   9.1251673  33.8474083  15.0181673   8.1201673  28.0504083
  15.6841673   8.6611673  28.2104083  14.6731673   8.4311673  27.3114083
  15.0651673   8.2461673  27.9654083  15.3311673  16.1861673  23.8574083
  15.1571673  15.5321673  24.4074083  16.0441673  15.9151673  23.4344083
  15.4111673  16.0491673  23.8764083   3.7521673  13.4851673  20.8844083
   3.5081673  13.1781673  21.6644083   3.7191673  12.7821673  20.3684083
   3.7111673  13.3361673  20.9234083   6.5711673  11.7301673  19.6274083
   5.7531673  11.4621673  19.7674083   6.5431673  12.5821673  19.8124083
   6.4461673  11.8171673  19.6754083   6.1711673   2.0431673  31.3864083
   5.3071673   2.1271673  31.4664083   6.3911673   1.5291673  32.0554083
   6.0761673   1.9801673  31.4974083  10.2741673   2.7911673  29.7604083
   9.5371673   2.3371673  29.8734083  10.8451673   2.3891673  30.2834083
  10.2491673   2.6641673  29.8544083  13.0061673  13.6391673  31.5484083
  13.2121673  13.9401673  32.3404083  12.9451673  14.3611673  31.0634083
  13.0271673  13.7901673  31.5934083  12.5401673  17.8531673  35.7944083
  11.7871673  17.8351673  35.3534083  12.7081673  18.7051673  35.8784083
  12.4541673  17.9761673  35.7414083   7.7771673   7.1201673  34.9644083
   7.4551673   6.5441673  34.3944083   7.4181673   7.8751673  34.7184083
   7.6771673   7.1461673  34.8444083  17.8181673  12.2781673  31.0064083
  17.7861673  11.4161673  30.8714083  17.1251673  12.5801673  30.5724083
  17.7111673  12.1951673  30.9224083  15.9231673  15.5381673  29.8034083
  16.4501673  15.4551673  29.1124083  15.5321673  14.7601673  29.8574083
  15.9431673  15.4111673  29.7094083   3.3911673   2.1261673  32.0344083
   3.0481673   1.3591673  31.8004083   2.6961673   2.6501673  32.0984083
   3.2381673   2.0901673  32.0094083  11.7961673   6.7901673  26.5044083
  12.3471673   6.1831673  26.8044083  11.3711673   7.0531673  27.2194083
  11.8151673   6.7391673  26.6534083   2.0441673   5.4401673  25.9904083
   1.6761673   5.7421673  26.7214083   2.5781673   4.8111673  26.2744083
   2.0681673   5.3921673  26.1404083  13.7661673   8.6211673  23.0664083
  13.8341673   7.7711673  23.2474083  12.9431673   8.7071673  22.7884083
  13.6541673   8.5081673  23.0524083   3.5181673  17.1151673  22.2764083
   3.3731673  17.2711673  21.4304083   4.3841673  17.1941673  22.3544083
   3.6251673  17.1501673  22.1634083   7.6851673   9.5121673  22.0044083
   7.7851673   9.6511673  21.1494083   8.5031673   9.4521673  22.3004083
   7.8201673   9.5231673  21.9214083  12.9201673  13.8411673  21.8064083
  12.6691673  13.7131673  22.6324083  12.6031673  13.1461673  21.3854083
  12.8361673  13.7201673  21.8664083  17.5641673   5.4991673  29.9264083
  16.7311673   5.7491673  29.8544083  17.5081673   4.6591673  30.1554083
  17.4331673   5.4121673  29.9494083   6.8241673   2.4871673  35.1204083
   7.0581673   1.9111673  34.5074083   5.9821673   2.3061673  35.2614083
   6.7341673   2.3751673  35.0504083   4.2051673  15.9301673  28.7534083
   4.1261673  15.1201673  28.4374083   3.7611673  16.4171673  28.1814083
   4.1281673  15.8821673  28.6224083   9.8061673  12.0491673  21.2364083
  10.5231673  11.7021673  20.8804083   9.7721673  12.8491673  20.8884083
   9.9071673  12.1161673  21.1324083   1.7771673  18.1741673  32.3344083
   2.2701673  18.1181673  33.0524083   1.9651673  17.4411673  31.8994083
   1.8781673  18.0571673  32.3764083  11.0241673   7.6061673  10.1461673
  10.5001673   8.2021673  10.5091673  11.4211673   7.2381673  10.8301673
  11.0051673   7.6401673  10.3011673  17.1681673  15.0471673   3.1171673
  17.8691673  14.5281673   3.1131673  16.5811673  14.6021673   2.6481673
  17.1851673  14.9041673   3.0471673  13.6951673   8.6731673   6.8221673
  13.7751673   8.6771673   5.9531673  13.1111673   8.0411673   6.9711673
  13.6201673   8.5801673   6.7161673   3.4021673  12.4421673   4.6811673
   4.0101673  12.2721673   5.2841673   2.6511673  12.3021673   5.1021673
   3.3811673  12.3961673   4.8321673   7.6841673   1.7771673   4.6301673
   7.6141673   2.4541673   4.0841673   8.4251673   1.3891673   4.3811673
   7.7831673   1.8201673   4.5121673   7.4071673  12.0061673  16.9241673
   7.1711673  12.0031673  17.7641673   6.6591673  11.8581673  16.5001673
   7.2611673  11.9831673  16.9851673   2.2791673   9.0021673   6.0591673
   1.8171673   8.6101673   5.4321673   2.9791673   8.4891673   6.1511673
   2.3141673   8.8691673   5.9801673   6.7871673   4.6121673  11.4061673
   7.4651673   4.6301673  10.8571673   6.7421673   3.7761673  11.6511673
   6.8801673   4.4911673  11.3611673   7.3891673  15.1981673  14.1871673
   7.5271673  15.9581673  13.7801673   8.1801673  14.8331673  14.2141673
   7.5261673  15.2571673  14.1311673   4.2801673   7.1021673   6.0821673
   5.0971673   6.9151673   6.3251673   3.8031673   6.4881673   6.4781673
   4.3301673   6.9841673   6.1771673   8.4841673  13.0831673   8.6921673
   8.8321673  12.2841673   8.7221673   9.1491673  13.5871673   8.4371673
   8.6341673  13.0391673   8.6591673   8.5411673  12.5321673   4.9031673
   8.8721673  11.8881673   5.3891673   8.7811673  12.3211673   4.0921673
   8.6251673  12.4061673   4.8551673  10.5091673   6.6631673  16.2421673
   9.6611673   6.5641673  16.0641673  10.5381673   7.4081673  16.6961673
  10.3881673   6.7591673  16.2831673   4.8771673   2.1961673   5.3481673
   4.5811673   2.6971673   4.6981673   5.7441673   2.2741673   5.2911673
   4.9611673   2.2821673   5.2441673   6.4851673  14.3171673   4.4521673
   5.9061673  14.0421673   5.0441673   7.1091673  13.7081673   4.4771673
   6.4921673  14.1871673   4.5431673  12.6281673  16.6051673   1.9741673
  13.3551673  17.0771673   2.0761673  12.8571673  15.8111673   2.2541673
  12.7701673  16.5581673   2.0311673  10.7961673  16.9971673   3.9641673
  11.0101673  17.5241673   4.6261673  11.5631673  16.8231673   3.5851673
  10.9411673  17.0491673   4.0061673   7.0701673   3.7131673  18.8611673
   7.1871673   3.2591673  18.1251673   7.3581673   4.5111673  18.6581673
   7.1301673   3.7641673  18.7221673   2.1901673  15.1431673   4.9031673
   2.8461673  14.5681673   4.9181673   2.5791673  15.8921673   4.6821673
   2.3451673  15.1681673   4.8731673  17.9231673   4.2371673   6.1651673
  17.5771673   4.9151673   6.5911673  17.2871673   3.6391673   6.1811673
  17.7781673   4.2491673   6.2301673  13.2351673  17.0071673  12.2691673
  13.9791673  17.4631673  12.2591673  13.1141673  16.7931673  11.4321673
  13.3271673  17.0431673  12.1441673   2.8031673   3.3101673  17.8451673
   2.0251673   2.9201673  17.7731673   3.2941673   2.8981673  17.2541673
   2.7601673   3.1911673  17.7471673   3.0081673  13.6301673   8.4031673
   3.4311673  13.2741673   7.7291673   3.3321673  13.2081673   9.0951673
   3.1181673  13.5151673   8.4061673   6.2391673  16.4821673   7.6991673
   7.0831673  16.5861673   7.5041673   5.9421673  17.3001673   7.7671673
   6.3201673  16.6181673   7.6801673  10.0461673   5.8791673   5.7861673
  10.3331673   5.6471673   4.9961673  10.7781673   5.9581673   6.2551673
  10.1961673   5.8561673   5.7391673  14.8091673  18.1921673   2.3741673
  15.4741673  18.0441673   1.8291673  15.1691673  18.1091673   3.1641673
  14.9611673  18.1581673   2.4101673   5.2371673  17.7011673  13.4391673
   5.5291673  17.6341673  14.2591673   4.6111673  17.0961673  13.3941673
   5.1881673  17.6021673  13.5541673  17.5981673   2.5601673  11.5341673
  18.3551673   2.6321673  11.1061673  17.6611673   1.7871673  11.9331673
  17.7191673   2.4571673  11.5291673  12.4891673  14.1921673  15.9731673
  12.4551673  14.5741673  16.7571673  13.3431673  14.1501673  15.8021673
  12.6101673  14.2421673  16.0641673  13.1341673   2.2851673   1.7771673
  13.6741673   1.6031673   1.8531673  13.1961673   2.6831673   2.5511673
  13.2231673   2.2431673   1.9031673   3.2301673  15.8631673  12.5611673
   2.5321673  15.3551673  12.6871673   3.4901673  15.6581673  11.7531673
   3.1651673  15.7581673  12.4601673  10.3921673   4.6611673   3.0911673
   9.8841673   3.9991673   2.8371673  10.4441673   5.1651673   2.3811673
  10.3251673   4.6381673   2.9491673  10.9411673  17.3561673  13.4711673
  11.7091673  17.2761673  13.0651673  10.3581673  17.2351673  12.8331673
  10.9681673  17.3261673  13.3171673  17.2181673  17.9591673   6.3721673
  16.7631673  18.6761673   6.5731673  16.6041673  17.3881673   6.1301673
  17.0601673  17.9811673   6.3661673   8.9901673   3.9691673   7.5041673
   9.0641673   4.5371673   6.8461673   9.1111673   4.4611673   8.2141673
   9.0181673   4.1261673   7.5121673  14.2151673  13.8041673   5.9161673
  14.9161673  13.3221673   6.1051673  13.5551673  13.2351673   5.9611673
  14.2211673  13.6491673   5.9501673   4.5911673  14.7141673  15.1281673
   5.4321673  14.7771673  14.9061673   4.5541673  15.1111673  15.9041673
   4.7101673  14.7821673  15.2101673   6.5541673  10.2251673   9.8771673
   6.7261673  10.0151673  10.7061673   5.8991673   9.6911673   9.6611673
   6.4831673  10.1151673   9.9681673  12.7821673   4.1391673  13.3921673
  12.6871673   4.4581673  14.1981673  12.1891673   3.5001673  13.3541673
  12.6801673   4.0911673  13.5061673   7.3041673  10.1631673  12.4671673
   7.3571673  11.0101673  12.6691673   7.0191673   9.7931673  13.2041673
   7.2701673  10.2331673  12.6051673  13.4811673  10.8581673  11.5971673
  12.9671673  10.4461673  12.1681673  13.3551673  11.7021673  11.7781673
  13.3871673  10.9221673  11.7081673  16.5021673   4.3191673  14.5361673
  17.2741673   4.0941673  14.8731673  16.0271673   4.5361673  15.2361673
  16.5461673   4.3181673  14.6891673   4.0461673   3.6021673   7.5061673
   4.3181673   3.1721673   6.7981673   3.8701673   2.9661673   8.0771673
   4.0601673   3.4451673   7.4861673   3.8701673  11.0291673   7.0551673
   4.7211673  10.9491673   6.8821673   3.5131673  10.3471673   6.6431673
   3.9431673  10.9161673   6.9681673   2.6371673  17.7541673   8.2921673
   1.9641673  17.2561673   8.0471673   3.0401673  17.9391673   7.5411673
   2.5971673  17.7081673   8.1451673   2.1871673   4.7041673  10.5881673
   3.0301673   4.9241673  10.5451673   1.7981673   5.2771673  10.0571673
   2.2541673   4.8211673  10.5031673   6.2381673  11.0361673   5.2901673
   6.9511673  11.5311673   5.3801673   6.4601673  10.4691673   4.6641673
   6.3761673  11.0251673   5.2111673   8.0411673   6.3891673  18.7061673
   7.5571673   6.9661673  19.1481673   8.0131673   6.6841673  17.8851673
   7.9651673   6.5181673  18.6501673  19.1391673   7.0731673  13.3181673
  19.3541673   6.2731673  13.0421673  18.2891673   7.1331673  13.1291673
  19.0451673   6.9641673  13.2491673  16.8181673   2.2531673   3.0411673
  17.5641673   1.8461673   3.2401673  17.0811673   2.9681673   2.6161673
  16.9671673   2.2991673   3.0081673  10.7611673  14.7391673   7.6171673
  10.2381673  15.3731673   7.3241673  11.0711673  14.3751673   6.8881673
  10.7291673  14.7791673   7.4661673   4.8361673  12.5271673  10.3771673
   5.3031673  12.8161673  11.0551673   5.4081673  12.0491673   9.9231673
   4.9901673  12.4991673  10.4101673  13.2721673   4.5411673   8.1141673
  13.6161673   4.6931673   8.9011673  12.8191673   3.8031673   8.2271673
  13.2561673   4.4541673   8.2471673   7.7481673   3.7611673   2.5711673
   7.7461673   3.6441673   1.7061673   7.5671673   4.6091673   2.6631673
   7.7211673   3.8691673   2.4571673  16.8021673  16.1881673  14.0681673
  16.1311673  16.7021673  14.2861673  16.8651673  16.2881673  13.2041673
  16.7121673  16.2791673  13.9731673   5.4861673  13.7131673   7.2031673
   5.6121673  14.5561673   7.3901673   6.1541673  13.3141673   7.5991673
   5.6041673  13.7791673   7.2891673   3.6161673   7.1961673  17.0651673
   3.0801673   6.6901673  17.5331673   3.6361673   6.8061673  16.2851673
   3.5391673   7.0631673  17.0191673   4.1011673   6.5931673   2.2051673
   3.9731673   6.1451673   2.9431673   3.5191673   6.2511673   1.6531673
   3.9961673   6.4761673   2.2331673   4.2681673   8.4231673   8.8041673
   3.4871673   8.3641673   8.4211673   4.3401673   7.6711673   9.2411673
   4.1631673   8.3041673   8.8121673   4.6981673   8.1601673  12.2721673
   4.7231673   7.4851673  11.7211673   4.0521673   8.6561673  11.9601673
   4.6071673   8.1331673  12.1451673  14.5931673   5.8731673  10.6681673
  13.9311673   6.2011673  11.1311673  14.7801673   6.5071673  10.0991673
  14.5231673   6.0151673  10.6521673   8.7981673  16.9371673  11.6641673
   8.5211673  16.2961673  11.1411673   8.5901673  17.6631673  11.2261673
   8.7271673  16.9501673  11.5221673  12.7861673   3.8421673   4.1791673
  13.2761673   4.5591673   4.1021673  11.9961673   4.1031673   3.9161673
  12.7421673   3.9861673   4.1291673   2.4971673   9.5151673  17.8311673
   2.4601673  10.0161673  17.1171673   2.8281673   8.7631673  17.5361673
   2.5401673   9.4771673  17.6821673  14.1001673  11.7201673  16.0891673
  14.5841673  12.4381673  16.1871673  14.4941673  11.2931673  15.4381673
  14.2301673  11.7631673  16.0071673   8.3961673  14.5651673  17.2661673
   8.7501673  14.3871673  18.0431673   7.9601673  13.8361673  17.0671673
   8.3841673  14.4311673  17.3521673   9.3681673   5.3121673   9.9041673
   9.8481673   6.0111673  10.1121673   9.7411673   4.6651673  10.3551673
   9.4941673   5.3201673  10.0011673  11.5571673   8.4811673   2.1781673
  11.5491673   9.2031673   1.6881673  10.9181673   8.6161673   2.7551673
  11.4621673   8.6081673   2.1911673  16.5291673  12.3511673   6.1591673
  16.8851673  12.0011673   6.8741673  16.5211673  11.6901673   5.5891673
  16.5811673  12.2011673   6.1801673  12.5741673  15.4171673  10.0031673
  11.9711673  15.1211673   9.4461673  13.1191673  15.8691673   9.4941673
  12.5651673  15.4401673   9.8451673  12.5871673  12.2681673   9.4031673
  11.7901673  12.4921673   9.6771673  12.8451673  11.6741673   9.9881673
  12.5071673  12.2131673   9.5301673   6.4791673  17.0801673   3.8511673
   6.3321673  16.3041673   4.2221673   7.1681673  16.9331673   3.3361673
   6.5591673  16.9431673   3.8301673   8.7711673  16.5961673   2.2531673
   9.3931673  16.7591673   2.8431673   8.8071673  17.2871673   1.7211673
   8.8681673  16.7221673   2.2621673  15.8471673  10.2661673  14.2491673
  15.9021673  10.3911673  13.3871673  16.6001673  10.5861673  14.5511673
  15.9661673  10.3311673  14.1661673   3.2721673   9.1301673   3.0821673
   3.5961673   8.3511673   2.8601673   3.9181673   9.4981673   3.5371673
   3.4151673   9.0691673   3.1161673  11.5781673  10.0721673  13.8491673
  11.4231673  10.6821673  14.4531673  12.1121673   9.5141673  14.2551673
  11.6341673  10.0801673  13.9981673   9.9621673   8.4721673   4.5071673
  10.0211673   9.1221673   5.0861673   9.7731673   7.7761673   4.9981673
   9.9431673   8.4651673   4.6651673  15.1881673  12.8011673  10.3761673
  14.7091673  13.0991673   9.7101673  14.8321673  12.0251673  10.5541673
  15.0651673  12.7301673  10.3041673   9.1851673  10.5191673   8.9381673
   8.3381673  10.3251673   9.0191673   9.5091673  10.3541673   9.7311673
   9.1071673  10.4661673   9.0671673   3.0331673  10.2121673  11.2541673
   3.7551673  10.7001673  11.2171673   2.7631673  10.1821673  10.4251673
   3.1001673  10.2801673  11.1261673   6.2631673   5.3831673   7.9891673
   7.1091673   5.1931673   8.0871673   5.8931673   4.6061673   7.8511673
   6.3331673   5.2401673   7.9831673  18.8801673  16.9671673   2.3161673
  19.5741673  16.5001673   2.0681673  18.3411673  16.3691673   2.6531673
  18.9031673  16.8091673   2.3291673  16.1191673   9.7431673  11.4951673
  16.1121673   8.9671673  11.8931673  15.2781673   9.9771673  11.4881673
  15.9941673   9.6631673  11.5531673   2.4281673  11.2641673  15.5321673
   2.0071673  10.7461673  14.9711673   2.0761673  12.0501673  15.3891673
   2.3141673  11.3041673  15.4281673  17.3751673   9.8141673   8.9321673
  17.0891673  10.2151673   9.6521673  18.2351673   9.7521673   9.0591673
  17.4601673   9.8641673   9.0571673   7.0641673   6.6161673   2.8401673
   7.3361673   7.4421673   2.9071673   6.2011673   6.6911673   2.7441673
   6.9771673   6.7491673   2.8351673  15.0371673   3.7381673  17.4721673
  14.5121673   4.1971673  17.9961673  14.6761673   2.9431673  17.4661673
  14.9061673   3.6881673  17.5481673  18.5061673  15.4471673   9.4611673
  18.7961673  15.7041673   8.6801673  19.2011673  15.5431673   9.9801673
  18.6521673  15.4991673   9.4221673  13.5291673   7.3071673  17.5481673
  13.6021673   7.4111673  18.4111673  12.8951673   7.8651673  17.3271673
  13.4461673   7.4051673  17.6431673  15.7971673   7.6261673  15.9131673
  16.1161673   8.4121673  16.1161673  15.4271673   7.3561673  16.6561673
  15.7901673   7.7021673  16.0531673  15.5931673   5.8841673   7.1021673
  14.8481673   5.5611673   7.4201673  15.5951673   6.7101673   7.3821673
  15.4831673   5.9581673   7.1901673  18.4951673   8.1681673  18.6481673
  18.4431673   7.8271673  17.8471673  19.2321673   8.6351673  18.6261673
  18.5961673   8.1871673  18.5261673  18.0331673  11.8441673  14.8541673
  18.6611673  11.2951673  14.5981673  17.9721673  12.4091673  14.1921673
  18.1171673  11.8471673  14.7181673   7.1671673  13.0751673  12.1501673
   6.8691673  13.6671673  12.7171673   7.2221673  13.5171673  11.4011673
   7.1311673  13.2281673  12.1231673   5.1461673  12.0251673  15.5481673
   4.3401673  11.7351673  15.7151673   5.0571673  12.8931673  15.5541673
   5.0141673  12.1101673  15.5731673  14.5051673   2.2141673  14.5631673
  15.2491673   2.6661673  14.5001673  13.9391673   2.6841673  14.0941673
  14.5321673   2.3511673  14.4851673   9.6831673   9.4981673  11.6411673
  10.1591673   9.8721673  12.2691673   8.8601673   9.6321673  11.9001673
   9.6321673   9.5731673  11.7721673   6.3931673   5.1011673  14.3821673
   6.5541673   4.3571673  14.8091673   6.3481673   4.8521673  13.5471673
   6.4101673   4.9541673  14.3221673   8.9471673  16.8911673   6.8691673
   9.4931673  17.5701673   6.9231673   8.5971673  16.9731673   6.0741673
   8.9761673  17.0041673   6.7591673   7.1301673  15.1191673  10.2581673
   6.5061673  15.7011673  10.0761673   7.3781673  14.8331673   9.4721673
   7.0741673  15.1631673  10.1151673  11.4391673  11.7531673  17.2471673
  12.1961673  12.0391673  16.9211673  10.8921673  11.8051673  16.5691673
  11.4701673  11.8031673  17.0981673  15.3481673  14.3031673  15.7511673
  15.6941673  14.5731673  16.5051673  15.6421673  14.8851673  15.1711673
  15.4431673  14.4291673  15.7771673   4.6541673   5.9621673  10.3231673
   5.0941673   5.8591673   9.5771673   5.1991673   5.6491673  10.9281673
   4.7991673   5.9011673  10.3021673  12.6701673   5.0641673  15.9151673
  12.0221673   5.5341673  16.2631673  13.2351673   4.9751673  16.5741673
  12.6581673   5.1201673  16.0641673  12.3581673   6.6011673  12.2131673
  12.6601673   7.0211673  12.9161673  12.3941673   5.7611673  12.4451673
  12.4081673   6.5391673  12.3511673   9.7831673  16.7681673  16.1381673
  10.2611673  16.1681673  15.7221673   9.4321673  16.3251673  16.8031673
   9.8021673  16.6141673  16.1751673  14.9061673   6.0481673   4.4651673
  15.1131673   5.8471673   5.2891673  15.6621673   6.3161673   4.1231673
  15.0481673   6.0581673   4.5361673  15.9281673   2.1311673   5.9391673
  15.2141673   1.6601673   6.1101673  15.7661673   2.4721673   5.1531673
  15.7991673   2.1121673   5.8481673  16.3711673  10.0751673   4.3191673
  16.8471673   9.3461673   4.2711673  15.5501673   9.7891673   4.2431673
  16.3201673   9.9251673   4.3001673   9.8421673  11.9871673  15.1581673
   9.0471673  11.9231673  15.5091673   9.9131673  12.8341673  14.9631673
   9.7351673  12.1021673  15.1811673   5.6721673  18.1941673  10.4751673
   5.6831673  18.2531673  11.3451673   5.2471673  17.4471673  10.3251673
   5.6111673  18.0921673  10.5811673   3.8301673   4.0891673   3.6301673
   3.9561673   3.7601673   2.8321673   3.0181673   3.8401673   3.8291673
   3.7291673   4.0041673   3.5421673  12.5871673  11.2421673   6.6741673
  12.6631673  11.5831673   7.4731673  12.7561673  10.3951673   6.7951673
  12.6231673  11.1671673   6.8101673  10.1091673  10.5161673   6.2391673
   9.8111673  10.2011673   6.9961673  10.8041673  10.9891673   6.4741673
  10.1681673  10.5391673   6.3861673  10.3311673  14.6341673  14.2661673
  11.0181673  14.5201673  14.7911673  10.4651673  15.4251673  13.9221673
  10.4521673  14.7341673  14.2931673  18.5071673   7.2431673  16.0771673
  17.6521673   7.1211673  16.2031673  18.6601673   6.8481673  15.3141673
  18.4031673   7.1661673  15.9831673  13.0201673   7.9081673  14.6531673
  12.7651673   7.1891673  15.0751673  13.8411673   8.0241673  14.9231673
  13.1041673   7.8191673  14.7551673   2.4361673  17.6921673  15.9171673
   1.7821673  17.1231673  16.0151673   2.0611673  18.4651673  16.0681673
   2.2841673  17.7221673  15.9541673  10.9541673   9.0981673  17.8401673
  11.2771673   9.7841673  17.4081673  10.2501673   9.4211673  18.2421673
  10.8971673   9.2471673  17.8351673  14.0381673  17.4721673   8.7691673
  13.5871673  18.1151673   9.1481673  14.7461673  17.3931673   9.2741673
  14.0761673  17.5551673   8.9001673  10.7391673  12.5621673  11.6991673
  10.0451673  12.9641673  12.0421673  11.4161673  12.9951673  12.0381673
  10.7361673  12.6851673  11.8001673   3.8071673   6.1001673  14.0461673
   4.1821673   6.7191673  13.5591673   4.4811673   5.6261673  14.3311673
   3.9621673   6.1221673  14.0161673  17.1411673   7.1881673   3.7611673
  17.2441673   7.1301673   2.8971673  17.8821673   6.8561673   4.0791673
  17.2661673   7.1311673   3.6801673  11.0611673  14.1531673   4.8681673
  10.8561673  14.9861673   4.7091673  10.2861673  13.7711673   4.9901673
  10.9161673  14.2201673   4.8631673  16.2431673   7.3341673  13.1171673
  16.2411673   6.4711673  13.2411673  16.3101673   7.6581673  13.9241673
  16.2531673   7.2541673  13.2541673  12.1221673   2.1341673  16.8991673
  12.2141673   2.8461673  17.3931673  11.4851673   1.6891673  17.2961673
  12.0411673   2.1731673  17.0311673  11.1161673   2.3241673   7.7531673
  10.4161673   2.8421673   7.6971673  11.1541673   1.9441673   6.9691673
  11.0181673   2.3451673   7.6291673  14.7141673   2.8401673  10.5531673
  15.5691673   2.9391673  10.6981673  14.3451673   3.3931673  11.1181673
  14.7861673   2.9371673  10.6581673   5.7421673   9.0661673  14.9301673
   5.3461673   9.8401673  15.0051673   5.3361673   8.6931673  14.2541673
   5.6241673   9.1251673  14.8411673  15.0181673   8.1201673   9.0441673
  15.6841673   8.6611673   9.2041673  14.6731673   8.4311673   8.3051673
  15.0651673   8.2461673   8.9591673  15.3311673  16.1861673   4.8511673
  15.1571673  15.5321673   5.4011673  16.0441673  15.9151673   4.4281673
  15.4111673  16.0491673   4.8701673   6.1711673   2.0431673  12.3801673
   5.3071673   2.1271673  12.4601673   6.3911673   1.5291673  13.0491673
   6.0761673   1.9801673  12.4911673  10.2741673   2.7911673  10.7541673
   9.5371673   2.3371673  10.8671673  10.8451673   2.3891673  11.2771673
  10.2491673   2.6641673  10.8481673  13.0061673  13.6391673  12.5421673
  13.2121673  13.9401673  13.3341673  12.9451673  14.3611673  12.0571673
  13.0271673  13.7901673  12.5871673   7.7771673   7.1201673  15.9581673
   7.4551673   6.5441673  15.3881673   7.4181673   7.8751673  15.7121673
   7.6771673   7.1461673  15.8381673  17.8181673  12.2781673  12.0001673
  17.7861673  11.4161673  11.8651673  17.1251673  12.5801673  11.5661673
  17.7111673  12.1951673  11.9161673   6.2121673  17.4761673  16.2061673
   6.2531673  17.6021673  17.0691673   6.8631673  16.9161673  16.0501673
   6.3141673  17.4121673  16.3111673  15.9231673  15.5381673  10.7971673
  16.4501673  15.4551673  10.1061673  15.5321673  14.7601673  10.8511673
  15.9431673  15.4111673  10.7031673   3.3911673   2.1261673  13.0281673
   3.0481673   1.3591673  12.7941673   2.6961673   2.6501673  13.0921673
   3.2381673   2.0901673  13.0031673   3.8051673  15.8591673  17.5661673
   4.4001673  16.2901673  18.0381673   3.4411673  16.4831673  17.0771673
   3.8391673  16.0151673  17.5631673  11.7961673   6.7901673   7.4981673
  12.3471673   6.1831673   7.7981673  11.3711673   7.0531673   8.2131673
  11.8151673   6.7391673   7.6471673   2.0441673   5.4401673   6.9841673
   1.6761673   5.7421673   7.7151673   2.5781673   4.8111673   7.2681673
   2.0681673   5.3921673   7.1341673  13.7661673   8.6211673   4.0601673
  13.8341673   7.7711673   4.2411673  12.9431673   8.7071673   3.7821673
  13.6541673   8.5081673   4.0461673   3.5181673  17.1151673   3.2701673
   3.3731673  17.2711673   2.4241673   4.3841673  17.1941673   3.3481673
   3.6251673  17.1501673   3.1571673   7.6851673   9.5121673   2.9981673
   7.7851673   9.6511673   2.1431673   8.5031673   9.4521673   3.2941673
   7.8201673   9.5231673   2.9151673  17.0401673   9.9941673  17.2111673
  17.6741673   9.8241673  17.7851673  17.4571673  10.3971673  16.5591673
  17.1951673  10.0291673  17.2001673  12.9201673  13.8411673   2.8001673
  12.6691673  13.7131673   3.6261673  12.6031673  13.1461673   2.3791673
  12.8361673  13.7201673   2.8601673  17.6651673   4.5581673  17.9491673
  17.4691673   5.2021673  18.5041673  16.9431673   4.0681673  17.9411673
  17.5301673   4.5811673  18.0301673  17.5641673   5.4991673  10.9201673
  16.7311673   5.7491673  10.8481673  17.5081673   4.6591673  11.1491673
  17.4331673   5.4121673  10.9431673   6.8241673   2.4871673  16.1141673
   7.0581673   1.9111673  15.5011673   5.9821673   2.3061673  16.2551673
   6.7341673   2.3751673  16.0441673  14.4511673  10.1051673  18.5661673
  15.3221673  10.0691673  18.5301673  14.2321673  10.5251673  17.8341673
  14.5481673  10.1611673  18.4531673   4.2051673  15.9301673   9.7471673
   4.1261673  15.1201673   9.4311673   3.7611673  16.4171673   9.1751673
   4.1281673  15.8821673   9.6161673   9.8061673  12.0491673   2.2301673
  10.5231673  11.7021673   1.8741673   9.7721673  12.8491673   1.8821673
   9.9071673  12.1161673   2.1261673   1.7771673  18.1741673  13.3281673
   2.2701673  18.1181673  14.0461673   1.9651673  17.4411673  12.8931673
   1.8781673  18.0571673  13.3701673
  37.5211785  37.3354425  37.5715755  90.0000000  90.0000000  90.0000000
